 vasp.6.4.3 19Mar24 (build Jul 01 2024 12:12:31) complex                        
  
 executed on             LinuxIFC date 2024.10.21  18:35:20
 running    8 mpi-ranks, on    1 nodes
 distrk:  each k-point on    8 cores,    1 groups
 distr:  one band on NCORE=   1 cores,    8 groups


--------------------------------------------------------------------------------------------------------


 INCAR:
   SYSTEM = BaZrO3
   PREC = Normal
   ENCUT = 400
   ISMEAR = 0
   SIGMA = 0.05
   IBRION = 2
   NSW = 500
   EDIFF = 1E-6
   POTIM = 0.1

 POTCAR:    PAW_PBE Ba_sv 06Sep2000               
 POTCAR:    PAW_PBE Zr_sv 04Jan2005               
 POTCAR:    PAW_PBE O 08Apr2002                   
 -----------------------------------------------------------------------------
|                                                                             |
|           W    W    AA    RRRRR   N    N  II  N    N   GGGG   !!!           |
|           W    W   A  A   R    R  NN   N  II  NN   N  G    G  !!!           |
|           W    W  A    A  R    R  N N  N  II  N N  N  G       !!!           |
|           W WW W  AAAAAA  RRRRR   N  N N  II  N  N N  G  GGG   !            |
|           WW  WW  A    A  R   R   N   NN  II  N   NN  G    G                |
|           W    W  A    A  R    R  N    N  II  N    N   GGGG   !!!           |
|                                                                             |
|     For optimal performance we recommend to set                             |
|       NCORE = 2 up to number-of-cores-per-socket                            |
|     NCORE specifies how many cores store one orbital (NPAR=cpu/NCORE).      |
|     This setting can greatly improve the performance of VASP for DFT.       |
|     The default, NCORE=1 might be grossly inefficient on modern             |
|     multi-core architectures or massively parallel machines. Do your        |
|     own testing! More info at https://www.vasp.at/wiki/index.php/NCORE      |
|     Unfortunately you need to use the default for GW and RPA                |
|     calculations (for HF NCORE is supported but not extensively tested      |
|     yet).                                                                   |
|                                                                             |
 -----------------------------------------------------------------------------

 POTCAR:    PAW_PBE Ba_sv 06Sep2000               
   SHA256 =  db99e82e473f9273fc04f241d4a23dc413358649e2d1724098d22351b75b003b Ba_sv/POTCAR          
   COPYR  = (c) Copyright 06Sep2000 Georg Kresse                                                    
   COPYR  = This file is part of the software VASP. Any use, copying, and all other rights are regul
   COPYR  = If you do not have a valid VASP license, you may not use, copy or distribute this file. 
   VRHFIN =Ba: 5s5p6s                                                                               
   LEXCH  = PE                                                                                      
   EATOM  =   700.8560 eV,   51.5115 Ry                                                             
                                                                                                    
   TITEL  = PAW_PBE Ba_sv 06Sep2000                                                                 
   LULTRA =        F    use ultrasoft PP ?                                                          
   IUNSCR =        1    unscreen: 0-lin 1-nonlin 2-no                                               
   RPACOR =    2.400    partial core radius                                                         
   POMASS =  137.327; ZVAL   =   10.000    mass and valenz                                          
   RCORE  =    2.800    outmost cutoff radius                                                       
   RWIGS  =    3.740; RWIGS  =    1.979    wigner-seitz radius (au A)                               
   ENMAX  =  187.181; ENMIN  =  140.386 eV                                                          
   RCLOC  =    2.516    cutoff for local pot                                                        
   LCOR   =        T    correct aug charges                                                         
   LPAW   =        T    paw PP                                                                      
   EAUG   =  351.165                                                                                
   DEXC   =    0.000                                                                                
   RMAX   =    2.865    core radius for proj-oper                                                   
   RAUG   =    1.300    factor for augmentation sphere                                              
   RDEP   =    2.976    radius for radial grids                                                     
   RDEPT  =    2.289    core radius for aug-charge                                                  
                                                                                                    
   Atomic configuration                                                                             
   13 entries                                                                                       
     n  l   j            E        occ.                                                              
     1  0  0.50    -37249.5946   2.0000                                                             
     2  0  0.50     -5887.1925   2.0000                                                             
     2  1  1.50     -5278.3977   6.0000                                                             
     3  0  0.50     -1242.7293   2.0000                                                             
     3  1  1.50     -1047.6609   6.0000                                                             
     3  2  2.50      -764.6158  10.0000                                                             
     4  0  0.50      -243.8228   2.0000                                                             
     4  1  1.50      -180.9218   6.0000                                                             
     4  2  2.50       -89.6477  10.0000                                                             
     5  0  0.50       -33.6549   2.0000                                                             
     6  0  0.50        -3.2247   1.9900                                                             
     5  1  1.50       -18.7193   6.0000                                                             
     5  2  2.50        -2.0115   0.0100                                                             
   Description                                                                                      
     l       E           TYP  RCUT    TYP  RCUT                                                     
     0    -33.6549039     23  2.800                                                                 
     0     -3.2246942     23  2.800                                                                 
     1    -18.7193050     23  2.700                                                                 
     1     27.2116520     23  2.700                                                                 
     2     -2.0115002     23  2.700                                                                 
     2      0.3057420     23  2.700                                                                 
  local pseudopotential read in
  partial core-charges read in
  partial kinetic energy density read in
  atomic valenz-charges read in
  non local Contribution for L=           0  read in
    real space projection operators read in
  non local Contribution for L=           0  read in
    real space projection operators read in
  non local Contribution for L=           1  read in
    real space projection operators read in
  non local Contribution for L=           1  read in
    real space projection operators read in
  non local Contribution for L=           2  read in
    real space projection operators read in
  non local Contribution for L=           2  read in
    real space projection operators read in
    PAW grid and wavefunctions read in
 
   number of l-projection  operators is LMAX  =           6
   number of lm-projection operators is LMMAX =          18
 
 POTCAR:    PAW_PBE Zr_sv 04Jan2005               
   SHA256 =  25aed69cb10325f9d37c5c68912b61a17387d1f8e4f1d804860ffa10c8a4bf76 Zr_sv/POTCAR          
   COPYR  = (c) Copyright 04Jan2005 Georg Kresse                                                    
   COPYR  = This file is part of the software VASP. Any use, copying, and all other rights are regul
   COPYR  = If you do not have a valid VASP license, you may not use, copy or distribute this file. 
   VRHFIN =Zr: 4s4p5s4d                                                                             
   LEXCH  = PE                                                                                      
   EATOM  =  1284.2219 eV,   94.3876 Ry                                                             
                                                                                                    
   TITEL  = PAW_PBE Zr_sv 04Jan2005                                                                 
   LULTRA =        F    use ultrasoft PP ?                                                          
   IUNSCR =        1    unscreen: 0-lin 1-nonlin 2-no                                               
   RPACOR =    2.200    partial core radius                                                         
   POMASS =   91.224; ZVAL   =   12.000    mass and valenz                                          
   RCORE  =    2.500    outmost cutoff radius                                                       
   RWIGS  =    3.070; RWIGS  =    1.625    wigner-seitz radius (au A)                               
   ENMAX  =  229.898; ENMIN  =  172.424 eV                                                          
   ICORE  =        3    local potential                                                             
   LCOR   =        T    correct aug charges                                                         
   LPAW   =        T    paw PP                                                                      
   EAUG   =  461.257                                                                                
   DEXC   =    0.000                                                                                
   RMAX   =    2.561    core radius for proj-oper                                                   
   RAUG   =    1.300    factor for augmentation sphere                                              
   RDEP   =    2.597    radius for radial grids                                                     
   RDEPT  =    2.007    core radius for aug-charge                                                  
                                                                                                    
   Atomic configuration                                                                             
   11 entries                                                                                       
     n  l   j            E        occ.                                                              
     1  0  0.50    -17820.0161   2.0000                                                             
     2  0  0.50     -2467.0882   2.0000                                                             
     2  1  1.50     -2199.6095   6.0000                                                             
     3  0  0.50      -402.4863   2.0000                                                             
     3  1  1.50      -315.3675   6.0000                                                             
     3  2  2.50      -172.4472  10.0000                                                             
     4  0  0.50       -52.4146   2.0000                                                             
     5  0  0.50        -3.8421   1.0000                                                             
     4  1  1.50       -30.5054   6.0000                                                             
     4  2  2.50        -2.3341   3.0000                                                             
     4  3  2.50        -1.3606   0.0000                                                             
   Description                                                                                      
     l       E           TYP  RCUT    TYP  RCUT                                                     
     0    -52.4145962     23  2.200                                                                 
     0     -3.8421270     23  2.500                                                                 
     1    -30.5053914     23  2.200                                                                 
     1     20.4087390     23  2.200                                                                 
     2     -2.3340816     23  2.500                                                                 
     2     -0.6120942     23  2.500                                                                 
     3     -4.0817478     23  2.500                                                                 
  local pseudopotential read in
  partial core-charges read in
  partial kinetic energy density read in
  atomic valenz-charges read in
  non local Contribution for L=           0  read in
    real space projection operators read in
  non local Contribution for L=           0  read in
    real space projection operators read in
  non local Contribution for L=           1  read in
    real space projection operators read in
  non local Contribution for L=           1  read in
    real space projection operators read in
  non local Contribution for L=           2  read in
    real space projection operators read in
  non local Contribution for L=           2  read in
    real space projection operators read in
    PAW grid and wavefunctions read in
 
   number of l-projection  operators is LMAX  =           6
   number of lm-projection operators is LMMAX =          18
 
 POTCAR:    PAW_PBE O 08Apr2002                   
   SHA256 =  818f92134a0a090dccd8ba1447fa70422a3b330e708bb4f08108d8ae51209ddf O/POTCAR              
   COPYR  = (c) Copyright 08Apr2002 Georg Kresse                                                    
   COPYR  = This file is part of the software VASP. Any use, copying, and all other rights are regul
   COPYR  = If you do not have a valid VASP license, you may not use, copy or distribute this file. 
   VRHFIN =O: s2p4                                                                                  
   LEXCH  = PE                                                                                      
   EATOM  =   432.3788 eV,   31.7789 Ry                                                             
                                                                                                    
   TITEL  = PAW_PBE O 08Apr2002                                                                     
   LULTRA =        F    use ultrasoft PP ?                                                          
   IUNSCR =        1    unscreen: 0-lin 1-nonlin 2-no                                               
   RPACOR =    1.200    partial core radius                                                         
   POMASS =   16.000; ZVAL   =    6.000    mass and valenz                                          
   RCORE  =    1.520    outmost cutoff radius                                                       
   RWIGS  =    1.550; RWIGS  =    0.820    wigner-seitz radius (au A)                               
   ENMAX  =  400.000; ENMIN  =  300.000 eV                                                          
   ICORE  =        2    local potential                                                             
   LCOR   =        T    correct aug charges                                                         
   LPAW   =        T    paw PP                                                                      
   EAUG   =  605.392                                                                                
   DEXC   =    0.000                                                                                
   RMAX   =    1.553    core radius for proj-oper                                                   
   RAUG   =    1.300    factor for augmentation sphere                                              
   RDEP   =    1.550    radius for radial grids                                                     
   RDEPT  =    1.329    core radius for aug-charge                                                  
                                                                                                    
   Atomic configuration                                                                             
    4 entries                                                                                       
     n  l   j            E        occ.                                                              
     1  0  0.50      -514.6923   2.0000                                                             
     2  0  0.50       -23.9615   2.0000                                                             
     2  1  0.50        -9.0305   4.0000                                                             
     3  2  1.50        -9.5241   0.0000                                                             
   Description                                                                                      
     l       E           TYP  RCUT    TYP  RCUT                                                     
     0    -23.9615318     23  1.200                                                                 
     0     -9.5240782     23  1.200                                                                 
     1     -9.0304911     23  1.520                                                                 
     1      8.1634956     23  1.520                                                                 
     2     -9.5240782      7  1.500                                                                 
  local pseudopotential read in
  partial core-charges read in
  partial kinetic energy density read in
  kinetic energy density of atom read in
  atomic valenz-charges read in
  non local Contribution for L=           0  read in
    real space projection operators read in
  non local Contribution for L=           0  read in
    real space projection operators read in
  non local Contribution for L=           1  read in
    real space projection operators read in
  non local Contribution for L=           1  read in
    real space projection operators read in
    PAW grid and wavefunctions read in
 
   number of l-projection  operators is LMAX  =           4
   number of lm-projection operators is LMMAX =           8
 
  PAW_PBE Ba_sv 06Sep2000               :
 energy of atom  1       EATOM= -700.8560
 kinetic energy error for atom=    0.0014 (will be added to EATOM!!)
  PAW_PBE Zr_sv 04Jan2005               :
 energy of atom  2       EATOM=-1284.2219
 kinetic energy error for atom=    0.0075 (will be added to EATOM!!)
  PAW_PBE O 08Apr2002                   :
 energy of atom  3       EATOM= -432.3788
 kinetic energy error for atom=    0.1156 (will be added to EATOM!!)
 
 
 POSCAR: Ba Zr O
  positions in cartesian coordinates
  No initial velocities read in


 exchange-correlation table for PE
   RHO(1)=    0.500       N(1)  =     2000
   RHO(2)=  100.500       N(2)  =     4000

 VTST: version 4.1, (05/19/21)

 CHAIN: initializing optimizer
 
 OPT: Using VASP Conjugate-Gradient optimizer
 CHAIN: Read ICHAIN            0
 
 POSCAR: Ba Zr O
  positions in cartesian coordinates
  No initial velocities read in
 


--------------------------------------------------------------------------------------------------------


 ion  position               nearest neighbor table
   1  0.000  0.000  0.000-   3 2.96   4 2.96   5 2.96   4 2.96   5 2.96   3 2.96   5 2.96   5 2.96
                             3 2.96   4 2.96   4 2.96   3 2.96   2 3.63   2 3.63   2 3.63   2 3.63
   2  0.500  0.500  0.500-   3 2.10   4 2.10   5 2.10   3 2.10   4 2.10   5 2.10   1 3.63   1 3.63
                             1 3.63   1 3.63   1 3.63   1 3.63   1 3.63   1 3.63
   3  0.500  0.500  0.000-   2 2.10   2 2.10   1 2.96   1 2.96   1 2.96   1 2.96
   4  0.500  0.000  0.500-   2 2.10   2 2.10   1 2.96   1 2.96   1 2.96   1 2.96
   5  0.000  0.500  0.500-   2 2.10   2 2.10   1 2.96   1 2.96   1 2.96   1 2.96
 
  LATTYP: Found a simple cubic cell.
 ALAT       =     4.1920000000
  
  Lattice vectors:
  
 A1 = (   4.1920000000,   0.0000000000,   0.0000000000)
 A2 = (   0.0000000000,   4.1920000000,   0.0000000000)
 A3 = (   0.0000000000,   0.0000000000,   4.1920000000)


Analysis of symmetry for initial positions (statically):
=====================================================================
 Subroutine PRICEL returns:
 Original cell was already a primitive cell.
 

 Routine SETGRP: Setting up the symmetry group for a 
 simple cubic supercell.


 Subroutine GETGRP returns: Found 48 space group operations
 (whereof 48 operations were pure point group operations)
 out of a pool of 48 trial point group operations.


The static configuration has the point symmetry O_h .


Analysis of symmetry for dynamics (positions and initial velocities):
=====================================================================
 Subroutine PRICEL returns:
 Original cell was already a primitive cell.
 

 Routine SETGRP: Setting up the symmetry group for a 
 simple cubic supercell.


 Subroutine GETGRP returns: Found 48 space group operations
 (whereof 48 operations were pure point group operations)
 out of a pool of 48 trial point group operations.


The dynamic configuration has the point symmetry O_h .


 Subroutine INISYM returns: Found 48 space group operations
 (whereof 48 operations are pure point group operations),
 and found     1 'primitive' translations


----------------------------------------------------------------------------------------

                                     Primitive cell                                     

  volume of cell :      73.6654

  direct lattice vectors                    reciprocal lattice vectors
     4.192000000  0.000000000  0.000000000     0.238549618  0.000000000  0.000000000
     0.000000000  4.192000000  0.000000000     0.000000000  0.238549618  0.000000000
     0.000000000  0.000000000  4.192000000     0.000000000  0.000000000  0.238549618

  length of vectors
     4.192000000  4.192000000  4.192000000     0.238549618  0.238549618  0.238549618

  position of ions in fractional coordinates (direct lattice)
     0.000000000  0.000000000  0.000000000
     0.500000000  0.500000000  0.500000000
     0.500000000  0.500000000  0.000000000
     0.500000000  0.000000000  0.500000000
     0.000000000  0.500000000  0.500000000

  ion indices of the primitive-cell ions
   primitive index   ion index
                 1           1
                 2           2
                 3           3
                 4           4
                 5           5

----------------------------------------------------------------------------------------

 
 
 KPOINTS: Automatic mesh                          

Automatic generation of k-mesh.
 Grid dimensions read from file:
 generate k-points for:    4    4    4

 Generating k-lattice:

  Cartesian coordinates                     Fractional coordinates (reciprocal lattice)
     0.059637405  0.000000000  0.000000000     0.250000000  0.000000000  0.000000000
     0.000000000  0.059637405  0.000000000     0.000000000  0.250000000  0.000000000
     0.000000000  0.000000000  0.059637405     0.000000000  0.000000000  0.250000000

  Length of vectors
     0.059637405  0.059637405  0.059637405

  Shift w.r.t. Gamma in fractional coordinates (k-lattice)
     0.500000000  0.500000000  0.500000000

 
 Subroutine IBZKPT returns following result:
 ===========================================
 
 Found      4 irreducible k-points:
 
 Following reciprocal coordinates:
            Coordinates               Weight
  0.125000  0.125000  0.125000      8.000000
  0.375000  0.125000  0.125000     24.000000
  0.375000  0.375000  0.125000     24.000000
  0.375000  0.375000  0.375000      8.000000
 
 Following cartesian coordinates:
            Coordinates               Weight
  0.029819  0.029819  0.029819      8.000000
  0.089456  0.029819  0.029819     24.000000
  0.089456  0.089456  0.029819     24.000000
  0.089456  0.089456  0.089456      8.000000
 


--------------------------------------------------------------------------------------------------------




 Dimension of arrays:
   k-points           NKPTS =      4   k-points in BZ     NKDIM =      4   number of bands    NBANDS=     24
   number of dos      NEDOS =    301   number of ions     NIONS =      5
   non local maximal  LDIM  =      6   non local SUM 2l+1 LMDIM =     18
   total plane-waves  NPLWV =  13824
   max r-space proj   IRMAX =      1   max aug-charges    IRDMAX=  11945
   dimension x,y,z NGX =    24 NGY =   24 NGZ =   24
   dimension x,y,z NGXF=    48 NGYF=   48 NGZF=   48
   support grid    NGXF=    48 NGYF=   48 NGZF=   48
   ions per type =               1   1   3
   NGX,Y,Z   is equivalent  to a cutoff of   9.52,  9.52,  9.52 a.u.
   NGXF,Y,Z  is equivalent  to a cutoff of  19.04, 19.04, 19.04 a.u.

 SYSTEM =  BaZrO3                                  
 POSCAR =  Ba Zr O                                 

 Startparameter for this run:
   NWRITE =      2    write-flag & timer
   PREC   = normal    normal or accurate (medium, high low for compatibility)
   ISTART =      1    job   : 0-new  1-cont  2-samecut
   ICHARG =      0    charge: 1-file 2-atom 10-const
   ISPIN  =      1    spin polarized calculation?
   LNONCOLLINEAR =      F non collinear calculations
   LSORBIT =      F    spin-orbit coupling
   INIWAV =      1    electr: 0-lowe 1-rand  2-diag
   LASPH  =      F    aspherical Exc in radial PAW
 Electronic Relaxation 1
   ENCUT  =  400.0 eV  29.40 Ry    5.42 a.u.   6.84  6.84  6.84*2*pi/ulx,y,z
   ENINI  =  400.0     initial cutoff
   ENAUG  =  605.4 eV  augmentation charge cutoff
   NELM   =     60;   NELMIN=  2; NELMDL=  0     # of ELM steps 
   EDIFF  = 0.1E-05   stopping-criterion for ELM
   LREAL  =      F    real-space projection
   NLSPLINE    = F    spline interpolate recip. space projectors
   LCOMPAT=      F    compatible to vasp.4.4
   GGA_COMPAT  = T    GGA compatible to vasp.4.4-vasp.4.6
   LMAXPAW     = -100 max onsite density
   LMAXMIX     =    2 max onsite mixed and CHGCAR
   VOSKOWN=      0    Vosko Wilk Nusair interpolation
   ROPT   =    0.00000   0.00000   0.00000
 Ionic relaxation
   EDIFFG = 0.1E-04   stopping-criterion for IOM
   NSW    =    500    number of steps for IOM
   NBLOCK =      1;   KBLOCK =    500    inner block; outer block 
   IBRION =      2    ionic relax: 0-MD 1-quasi-New 2-CG
   NFREE  =      1    steps in history (QN), initial steepest desc. (CG)
   ISIF   =      2    stress and relaxation
   IWAVPR =     11    prediction:  0-non 1-charg 2-wave 3-comb
   ISYM   =      2    0-nonsym 1-usesym 2-fastsym
   LCORR  =      T    Harris-Foulkes like correction to forces

   POTIM  = 0.1000    time-step for ionic-motion
   TEIN   =    0.0    initial temperature
   TEBEG  =    0.0;   TEEND  =   0.0 temperature during run
   SMASS  =  -3.00    Nose mass-parameter (am)
   estimated Nose-frequenzy (Omega)   =  0.10E-29 period in steps = 0.63E+47 mass=  -0.402E-27a.u.
   SCALEE = 1.0000    scale energy and forces
   NPACO  =    256;   APACO  = 10.0  distance and # of slots for P.C.
   PSTRESS=    0.0 pullay stress

  Mass of Ions in am
   POMASS = 137.33 91.22 16.00
  Ionic Valenz
   ZVAL   =  10.00 12.00  6.00
  Atomic Wigner-Seitz radii
   RWIGS  =  -1.00 -1.00 -1.00
  virtual crystal weights 
   VCA    =   1.00  1.00  1.00
   NELECT =      40.0000    total number of electrons
   NUPDOWN=      -1.0000    fix difference up-down

 DOS related values:
   EMIN   =  10.00;   EMAX   =-10.00  energy-range for DOS
   EFERMI =   0.00;   METHOD = LEGACY      
   ISMEAR =     0;   SIGMA  =   0.05  broadening in eV -4-tet -1-fermi 0-gaus

 Electronic relaxation 2 (details)
   IALGO  =     38    algorithm
   LDIAG  =      T    sub-space diagonalisation (order eigenvalues)
   LSUBROT=      F    optimize rotation matrix (better conditioning)
   TURBO    =      0    0=normal 1=particle mesh
   IRESTART =      0    0=no restart 2=restart with 2 vectors
   NREBOOT  =      0    no. of reboots
   NMIN     =      0    reboot dimension
   EREF     =   0.00    reference energy to select bands
   IMIX   =      4    mixing-type and parameters
     AMIX     =   0.40;   BMIX     =  1.00
     AMIX_MAG =   1.60;   BMIX_MAG =  1.00
     AMIN     =   0.10
     WC   =   100.;   INIMIX=   1;  MIXPRE=   1;  MAXMIX= -45

 Intra band minimization:
   WEIMIN = 0.0010     energy-eigenvalue tresh-hold
   EBREAK =  0.10E-07  absolut break condition
   DEPER  =   0.30     relativ break condition  

   TIME   =   0.40     timestep for ELM

  volume/ion in A,a.u.               =      14.73        99.42
  Fermi-wavevector in a.u.,A,eV,Ry     =   1.335591  2.523901 24.270125  1.783804
  Thomas-Fermi vector in A             =   2.464284
 
 Write flags
   LWAVE        =      T    write WAVECAR
   LDOWNSAMPLE  =      F    k-point downsampling of WAVECAR
   LCHARG       =      T    write CHGCAR
   LVTOT        =      F    write LOCPOT, total local potential
   LVHAR        =      F    write LOCPOT, Hartree potential only
   WRT_POTENTIAL= false  ! write potential to hdf5 file
   LELF         =      F    write electronic localiz. function (ELF)
   LORBIT       =      0    0 simple, 1 ext, 2 COOP (PROOUT), +10 PAW based schemes


 Dipole corrections
   LMONO      =      F    monopole corrections only (constant potential shift)
   LDIPOL     =      F    correct potential (dipole corrections)
   IDIPOL     =      0    1-x, 2-y, 3-z, 4-all directions 
   EPSILON    =  1.0000000 bulk dielectric constant
   LVACPOTAV  =      F  vacuum potentials using an averaging scheme for the charge density
   VACPOTFLAT =  0.1000000 required flatness to determine vacuum potential
 Exchange correlation treatment:
   GGA     = PE    functional components
   XC_C    = 1    coefficients multiplying the functional components
   LIBXC   =     F    Libxc                    
   VOSKOWN =     0    Vosko Wilk Nusair interpolation
   LHFCALC =     F    Hartree Fock is set to
   LHFONE  =     F    Hartree Fock one center treatment
   AEXX    =    0.0000 exact exchange contribution

 Parameters of functionals:
   PE:
     No parameter
 
 Van der Waals corrections
   IVDW    =     0    specifies the selected vdW correction

 Linear response parameters
   LEPSILON=     F    determine dielectric tensor
   LRPA    =     F    only Hartree local field effects (RPA)
   LNABLA  =     F    use nabla operator in PAW spheres
   LVEL    =     F    velocity operator in full k-point grid
   CSHIFT  =0.1000    complex shift for real part using Kramers Kronig
   OMEGAMAX=  -1.0    maximum frequency
   DEG_THRESHOLD= 0.2000000E-02 threshold for treating states as degnerate
   RTIME   =   -0.100 relaxation time in fs
  (WPLASMAI=    0.000 imaginary part of plasma frequency in eV, 0.658/RTIME)
   DFIELD  = 0.0000000 0.0000000 0.0000000 field for delta impulse in time
 
  Optional k-point grid parameters
   LKPOINTS_OPT  =     F    use optional k-point grid
   KPOINTS_OPT_MODE=     1    mode for optional k-point grid
 
 Orbital magnetization related:
   ORBITALMAG=     F  switch on orbital magnetization
   LCHIMAG   =     F  perturbation theory with respect to B field
   DQ        =  0.001000  dq finite difference perturbation B field
   LLRAUG    =     F  two centre corrections for induced B field
   LBONE     =     F  B-component reconstruction in AE one-centre
   LVGVCALC  =     T  calculate vGv susceptibility
   LVGVAPPL  =     F  apply vGv susceptibility instead of pGv for G=0

 Random number generation:
   RANDOM_GENERATOR = DEFAULT
   PCG_SEED         = not used


--------------------------------------------------------------------------------------------------------


 conjugate gradient relaxation of ions
 charge density and potential will be updated during run
 non-spin polarized calculation
 Variant of blocked Davidson
 Davidson routine will perform the subspace rotation
 perform sub-space diagonalisation
    after iterative eigenvector-optimisation
 modified Broyden-mixing scheme, WC =      100.0
 initial mixing is a Kerker type mixing with AMIX =  0.4000 and BMIX =      1.0000
 Hartree-type preconditioning will be used
 using additional bands            4
 reciprocal scheme for non local part
 use partial core corrections
 calculate Harris-corrections to forces 
   (improved forces if not selfconsistent)
 use gradient corrections 
 use of overlap-Matrix (Vanderbilt PP)
 Gauss-broadening in eV      SIGMA  =   0.05


--------------------------------------------------------------------------------------------------------


  energy-cutoff  :      400.00
  volume of cell :       73.67
      direct lattice vectors                 reciprocal lattice vectors
     4.192000000  0.000000000  0.000000000     0.238549618  0.000000000  0.000000000
     0.000000000  4.192000000  0.000000000     0.000000000  0.238549618  0.000000000
     0.000000000  0.000000000  4.192000000     0.000000000  0.000000000  0.238549618

  length of vectors
     4.192000000  4.192000000  4.192000000     0.238549618  0.238549618  0.238549618


 
 old parameters found on file WAVECAR:
  energy-cutoff  :      400.00
  volume of cell :       25.30
      direct lattice vectors                 reciprocal lattice vectors
     2.935689000  0.000000000  0.000000000     0.340635537  0.000000000  0.000000000
    -0.000000000  2.935689000  0.000000000     0.000000000  0.340635537  0.000000000
     0.000000000  0.000000000  2.935689000    -0.000000000 -0.000000000  0.340635537

  length of vectors

 
 k-points in units of 2pi/SCALE and weight: Automatic mesh                          
   0.02981870  0.02981870  0.02981870       0.125
   0.08945611  0.02981870  0.02981870       0.375
   0.08945611  0.08945611  0.02981870       0.375
   0.08945611  0.08945611  0.08945611       0.125
 
 k-points in reciprocal lattice and weights: Automatic mesh                          
   0.12500000  0.12500000  0.12500000       0.125
   0.37500000  0.12500000  0.12500000       0.375
   0.37500000  0.37500000  0.12500000       0.375
   0.37500000  0.37500000  0.37500000       0.125
 
 position of ions in fractional coordinates (direct lattice) 
   0.00000000  0.00000000  0.00000000
   0.50000000  0.50000000  0.50000000
   0.50000000  0.50000000  0.00000000
   0.50000000  0.00000000  0.50000000
   0.00000000  0.50000000  0.50000000
 
 position of ions in cartesian coordinates  (Angst):
   0.00000000  0.00000000  0.00000000
   2.09600000  2.09600000  2.09600000
   2.09600000  2.09600000  0.00000000
   2.09600000  0.00000000  2.09600000
   0.00000000  2.09600000  2.09600000
 


--------------------------------------------------------------------------------------------------------


 k-point     1 :   0.1250 0.1250 0.1250  plane waves:    1328
 k-point     2 :   0.3750 0.1250 0.1250  plane waves:    1344
 k-point     3 :   0.3750 0.3750 0.1250  plane waves:    1336
 k-point     4 :   0.3750 0.3750 0.3750  plane waves:    1355

 maximum and minimum number of plane-waves per node :      1355     1328

 maximum number of plane-waves:      1355
 maximum index in each direction: 
   IXMAX=    6   IYMAX=    6   IZMAX=    6
   IXMIN=   -7   IYMIN=   -7   IZMIN=   -7


 serial   3D FFT for wavefunctions
 parallel 3D FFT for charge:
    minimum data exchange during FFTs selected (reduces bandwidth)


 total amount of memory used by VASP MPI-rank0    34819. kBytes
=======================================================================

   base      :      30000. kBytes
   nonl-proj :       2458. kBytes
   fftplans  :        537. kBytes
   grid      :       1474. kBytes
   one-center:         77. kBytes
   wavefun   :        273. kBytes
 
     INWAV:  cpu time      0.0056: real time      0.0070
 Broyden mixing: mesh for mixing (old mesh)
   NGX = 13   NGY = 13   NGZ = 13
  (NGX  = 48   NGY  = 48   NGZ  = 48)
  gives a total of   2197 points

 charge density for first step will be calculated from the start-wavefunctions


--------------------------------------------------------------------------------------------------------


 Maximum index for augmentation-charges         1451 (set IRDMAX)


--------------------------------------------------------------------------------------------------------


 initial charge from wavefunction
 First call to EWALD:  gamma=   0.423
 Maximum number of real-space cells 3x 3x 3
 Maximum number of reciprocal cells 3x 3x 3

    FEWALD:  cpu time      0.0005: real time      0.0016


--------------------------------------- Ionic step        1  -------------------------------------------




--------------------------------------- Iteration      1(   1)  ---------------------------------------


    POTLOK:  cpu time      0.0092: real time      0.0111
    SETDIJ:  cpu time      0.0013: real time      0.0013
     EDDAV:  cpu time      0.0875: real time      0.8162
       DOS:  cpu time      0.0007: real time      0.0020
    CHARGE:  cpu time      0.0062: real time      0.0063
    MIXING:  cpu time      0.0006: real time      0.0012
    --------------------------------------------
      LOOP:  cpu time      0.1056: real time      0.8381

 eigenvalue-minimisations  :   224
 total energy-change (2. order) :-0.2458155E+03  (-0.5813613E+03)
 number of electron      40.0000210 magnetization 
 augmentation part        5.3859425 magnetization 

 Broyden mixing:
  rms(total) = 0.16167E+02    rms(broyden)= 0.16163E+02
  rms(prec ) = 0.22162E+02
  weight for this iteration     100.00

 Free energy of the ion-electron system (eV)
  ---------------------------------------------------
  alpha Z        PSCENC =       240.34259355
  Ewald energy   TEWEN  =     -2693.37944630
  -Hartree energ DENC   =      -234.24999960
  -exchange      EXHF   =         0.00000000
  -V(xc)+E(xc)   XCENC  =       132.02159813
  PAW double counting   =     45394.33366409   -45400.07320013
  entropy T*S    EENTRO =        -0.00000000
  eigenvalues    EBANDS =      -966.66936903
  atomic energy  EATOM  =      3281.85861458
  Solvation  Ediel_sol  =         0.00000000
  ---------------------------------------------------
  free energy    TOTEN  =      -245.81554470 eV

  energy without entropy =     -245.81554470  energy(sigma->0) =     -245.81554470


--------------------------------------------------------------------------------------------------------




--------------------------------------- Iteration      1(   2)  ---------------------------------------


    POTLOK:  cpu time      0.0041: real time      0.0053
    SETDIJ:  cpu time      0.0010: real time      0.0010
     EDDAV:  cpu time      0.0217: real time      0.0218
       DOS:  cpu time      0.0001: real time      0.0001
    CHARGE:  cpu time      0.0029: real time      0.0030
    MIXING:  cpu time      0.0009: real time      0.0246
    --------------------------------------------
      LOOP:  cpu time      0.0307: real time      0.0558

 eigenvalue-minimisations  :   208
 total energy-change (2. order) : 0.1514982E+03  (-0.5448684E+02)
 number of electron      40.0000126 magnetization 
 augmentation part        2.3396483 magnetization 

 Broyden mixing:
  rms(total) = 0.10675E+02    rms(broyden)= 0.10674E+02
  rms(prec ) = 0.13569E+02
  weight for this iteration     100.00

 eigenvalues of (default mixing * dielectric matrix)
  average eigenvalue GAMMA=   2.4177
  2.4177

 Free energy of the ion-electron system (eV)
  ---------------------------------------------------
  alpha Z        PSCENC =       240.34259355
  Ewald energy   TEWEN  =     -2693.37944630
  -Hartree energ DENC   =      -437.66142389
  -exchange      EXHF   =         0.00000000
  -V(xc)+E(xc)   XCENC  =       144.92670825
  PAW double counting   =     24045.14388028   -24049.77526086
  entropy T*S    EENTRO =        -0.00000000
  eigenvalues    EBANDS =      -625.77300295
  atomic energy  EATOM  =      3281.85861458
  Solvation  Ediel_sol  =         0.00000000
  ---------------------------------------------------
  free energy    TOTEN  =       -94.31733735 eV

  energy without entropy =      -94.31733735  energy(sigma->0) =      -94.31733735


--------------------------------------------------------------------------------------------------------




--------------------------------------- Iteration      1(   3)  ---------------------------------------


    POTLOK:  cpu time      0.0051: real time      0.0052
    SETDIJ:  cpu time      0.0009: real time      0.0009
     EDDAV:  cpu time      0.0194: real time      0.0195
       DOS:  cpu time      0.0001: real time      0.0001
    CHARGE:  cpu time      0.0026: real time      0.0026
    MIXING:  cpu time      0.0003: real time      0.0003
    --------------------------------------------
      LOOP:  cpu time      0.0283: real time      0.0286

 eigenvalue-minimisations  :   192
 total energy-change (2. order) : 0.5109609E+02  (-0.3532548E+02)
 number of electron      40.0000101 magnetization 
 augmentation part        0.4843474 magnetization 

 Broyden mixing:
  rms(total) = 0.23680E+01    rms(broyden)= 0.23651E+01
  rms(prec ) = 0.30376E+01
  weight for this iteration     100.00

 eigenvalues of (default mixing * dielectric matrix)
  average eigenvalue GAMMA=   1.6058
  1.1361  2.0756

 Free energy of the ion-electron system (eV)
  ---------------------------------------------------
  alpha Z        PSCENC =       240.34259355
  Ewald energy   TEWEN  =     -2693.37944630
  -Hartree energ DENC   =      -760.09812709
  -exchange      EXHF   =         0.00000000
  -V(xc)+E(xc)   XCENC  =       163.44183048
  PAW double counting   =      6991.10931318    -6971.64745026
  entropy T*S    EENTRO =        -0.00000000
  eigenvalues    EBANDS =      -294.84857058
  atomic energy  EATOM  =      3281.85861458
  Solvation  Ediel_sol  =         0.00000000
  ---------------------------------------------------
  free energy    TOTEN  =       -43.22124243 eV

  energy without entropy =      -43.22124243  energy(sigma->0) =      -43.22124243


--------------------------------------------------------------------------------------------------------




--------------------------------------- Iteration      1(   4)  ---------------------------------------


    POTLOK:  cpu time      0.0042: real time      0.0049
    SETDIJ:  cpu time      0.0009: real time      0.0009
     EDDAV:  cpu time      0.0283: real time      0.0285
       DOS:  cpu time      0.0001: real time      0.0001
    CHARGE:  cpu time      0.0027: real time      0.0027
    MIXING:  cpu time      0.0003: real time      0.0009
    --------------------------------------------
      LOOP:  cpu time      0.0364: real time      0.0380

 eigenvalue-minimisations  :   304
 total energy-change (2. order) : 0.3040879E+00  (-0.1960035E+01)
 number of electron      40.0000101 magnetization 
 augmentation part        0.2808256 magnetization 

 Broyden mixing:
  rms(total) = 0.11488E+01    rms(broyden)= 0.11486E+01
  rms(prec ) = 0.17165E+01
  weight for this iteration     100.00

 eigenvalues of (default mixing * dielectric matrix)
  average eigenvalue GAMMA=   1.5339
  0.9171  2.0082  1.6764

 Free energy of the ion-electron system (eV)
  ---------------------------------------------------
  alpha Z        PSCENC =       240.34259355
  Ewald energy   TEWEN  =     -2693.37944630
  -Hartree energ DENC   =      -743.49785707
  -exchange      EXHF   =         0.00000000
  -V(xc)+E(xc)   XCENC  =       162.98413142
  PAW double counting   =      5971.67725726    -5955.06061879
  entropy T*S    EENTRO =        -0.00000000
  eigenvalues    EBANDS =      -307.84182922
  atomic energy  EATOM  =      3281.85861458
  Solvation  Ediel_sol  =         0.00000000
  ---------------------------------------------------
  free energy    TOTEN  =       -42.91715456 eV

  energy without entropy =      -42.91715456  energy(sigma->0) =      -42.91715456


--------------------------------------------------------------------------------------------------------




--------------------------------------- Iteration      1(   5)  ---------------------------------------


    POTLOK:  cpu time      0.0049: real time      0.0051
    SETDIJ:  cpu time      0.0009: real time      0.0009
     EDDAV:  cpu time      0.0238: real time      0.0240
       DOS:  cpu time      0.0001: real time      0.0001
    CHARGE:  cpu time      0.0027: real time      0.0027
    MIXING:  cpu time      0.0002: real time      0.0002
    --------------------------------------------
      LOOP:  cpu time      0.0327: real time      0.0330

 eigenvalue-minimisations  :   248
 total energy-change (2. order) : 0.1214829E+01  (-0.7599167E+00)
 number of electron      40.0000105 magnetization 
 augmentation part        0.5024003 magnetization 

 Broyden mixing:
  rms(total) = 0.88251E+00    rms(broyden)= 0.88240E+00
  rms(prec ) = 0.89296E+00
  weight for this iteration     100.00

 eigenvalues of (default mixing * dielectric matrix)
  average eigenvalue GAMMA=   1.6364
  3.0864  1.6442  0.9075  0.9075

 Free energy of the ion-electron system (eV)
  ---------------------------------------------------
  alpha Z        PSCENC =       240.34259355
  Ewald energy   TEWEN  =     -2693.37944630
  -Hartree energ DENC   =      -704.21068414
  -exchange      EXHF   =         0.00000000
  -V(xc)+E(xc)   XCENC  =       161.36188330
  PAW double counting   =      5280.13925339    -5267.51689949
  entropy T*S    EENTRO =        -0.00000000
  eigenvalues    EBANDS =      -340.29764072
  atomic energy  EATOM  =      3281.85861458
  Solvation  Ediel_sol  =         0.00000000
  ---------------------------------------------------
  free energy    TOTEN  =       -41.70232581 eV

  energy without entropy =      -41.70232581  energy(sigma->0) =      -41.70232581


--------------------------------------------------------------------------------------------------------




--------------------------------------- Iteration      1(   6)  ---------------------------------------


    POTLOK:  cpu time      0.0048: real time      0.0050
    SETDIJ:  cpu time      0.0009: real time      0.0009
     EDDAV:  cpu time      0.0287: real time      0.0288
       DOS:  cpu time      0.0001: real time      0.0001
    CHARGE:  cpu time      0.0027: real time      0.0027
    MIXING:  cpu time      0.0002: real time      0.0002
    --------------------------------------------
      LOOP:  cpu time      0.0373: real time      0.0378

 eigenvalue-minimisations  :   312
 total energy-change (2. order) :-0.1195770E+00  (-0.7300668E-01)
 number of electron      40.0000103 magnetization 
 augmentation part        0.4503100 magnetization 

 Broyden mixing:
  rms(total) = 0.19657E+00    rms(broyden)= 0.19652E+00
  rms(prec ) = 0.37744E+00
  weight for this iteration     100.00

 eigenvalues of (default mixing * dielectric matrix)
  average eigenvalue GAMMA=   1.4579
  2.3691  1.7611  0.9132  1.1230  1.1230

 Free energy of the ion-electron system (eV)
  ---------------------------------------------------
  alpha Z        PSCENC =       240.34259355
  Ewald energy   TEWEN  =     -2693.37944630
  -Hartree energ DENC   =      -705.27320023
  -exchange      EXHF   =         0.00000000
  -V(xc)+E(xc)   XCENC  =       161.62145508
  PAW double counting   =      4576.05515346    -4563.86571082
  entropy T*S    EENTRO =        -0.00000000
  eigenvalues    EBANDS =      -339.18136216
  atomic energy  EATOM  =      3281.85861458
  Solvation  Ediel_sol  =         0.00000000
  ---------------------------------------------------
  free energy    TOTEN  =       -41.82190283 eV

  energy without entropy =      -41.82190283  energy(sigma->0) =      -41.82190283


--------------------------------------------------------------------------------------------------------




--------------------------------------- Iteration      1(   7)  ---------------------------------------


    POTLOK:  cpu time      0.0049: real time      0.0051
    SETDIJ:  cpu time      0.0009: real time      0.0009
     EDDAV:  cpu time      0.0238: real time      0.0239
       DOS:  cpu time      0.0001: real time      0.0001
    CHARGE:  cpu time      0.0027: real time      0.0027
    MIXING:  cpu time      0.0002: real time      0.0002
    --------------------------------------------
      LOOP:  cpu time      0.0325: real time      0.0329

 eigenvalue-minimisations  :   248
 total energy-change (2. order) : 0.6675266E-01  (-0.3063886E-01)
 number of electron      40.0000104 magnetization 
 augmentation part        0.4260653 magnetization 

 Broyden mixing:
  rms(total) = 0.15949E+00    rms(broyden)= 0.15947E+00
  rms(prec ) = 0.18416E+00
  weight for this iteration     100.00

 eigenvalues of (default mixing * dielectric matrix)
  average eigenvalue GAMMA=   1.5349
  2.8044  1.7907  1.7907  0.8175  1.0032  1.0032

 Free energy of the ion-electron system (eV)
  ---------------------------------------------------
  alpha Z        PSCENC =       240.34259355
  Ewald energy   TEWEN  =     -2693.37944630
  -Hartree energ DENC   =      -708.63480829
  -exchange      EXHF   =         0.00000000
  -V(xc)+E(xc)   XCENC  =       161.63048080
  PAW double counting   =      4751.83072168    -4738.78338039
  entropy T*S    EENTRO =        -0.00000000
  eigenvalues    EBANDS =      -336.61992581
  atomic energy  EATOM  =      3281.85861458
  Solvation  Ediel_sol  =         0.00000000
  ---------------------------------------------------
  free energy    TOTEN  =       -41.75515017 eV

  energy without entropy =      -41.75515017  energy(sigma->0) =      -41.75515017


--------------------------------------------------------------------------------------------------------




--------------------------------------- Iteration      1(   8)  ---------------------------------------


    POTLOK:  cpu time      0.0047: real time      0.0050
    SETDIJ:  cpu time      0.0009: real time      0.0009
     EDDAV:  cpu time      0.0284: real time      0.0286
       DOS:  cpu time      0.0001: real time      0.0001
    CHARGE:  cpu time      0.0027: real time      0.0027
    MIXING:  cpu time      0.0002: real time      0.0002
    --------------------------------------------
      LOOP:  cpu time      0.0370: real time      0.0375

 eigenvalue-minimisations  :   304
 total energy-change (2. order) :-0.2386848E-02  (-0.8486355E-02)
 number of electron      40.0000103 magnetization 
 augmentation part        0.4005706 magnetization 

 Broyden mixing:
  rms(total) = 0.39892E-01    rms(broyden)= 0.39835E-01
  rms(prec ) = 0.81065E-01
  weight for this iteration     100.00

 eigenvalues of (default mixing * dielectric matrix)
  average eigenvalue GAMMA=   1.4241
  2.6696  2.1025  1.4637  1.0424  1.0424  0.9669  0.6810

 Free energy of the ion-electron system (eV)
  ---------------------------------------------------
  alpha Z        PSCENC =       240.34259355
  Ewald energy   TEWEN  =     -2693.37944630
  -Hartree energ DENC   =      -712.76345550
  -exchange      EXHF   =         0.00000000
  -V(xc)+E(xc)   XCENC  =       161.86467605
  PAW double counting   =      4669.22262596    -4655.80145216
  entropy T*S    EENTRO =        -0.00000000
  eigenvalues    EBANDS =      -333.10169321
  atomic energy  EATOM  =      3281.85861458
  Solvation  Ediel_sol  =         0.00000000
  ---------------------------------------------------
  free energy    TOTEN  =       -41.75753702 eV

  energy without entropy =      -41.75753702  energy(sigma->0) =      -41.75753702


--------------------------------------------------------------------------------------------------------




--------------------------------------- Iteration      1(   9)  ---------------------------------------


    POTLOK:  cpu time      0.0048: real time      0.0050
    SETDIJ:  cpu time      0.0009: real time      0.0009
     EDDAV:  cpu time      0.0235: real time      0.0237
       DOS:  cpu time      0.0001: real time      0.0001
    CHARGE:  cpu time      0.0027: real time      0.0027
    MIXING:  cpu time      0.0002: real time      0.0002
    --------------------------------------------
      LOOP:  cpu time      0.0322: real time      0.0326

 eigenvalue-minimisations  :   248
 total energy-change (2. order) : 0.3447033E-02  (-0.2303818E-02)
 number of electron      40.0000103 magnetization 
 augmentation part        0.4140520 magnetization 

 Broyden mixing:
  rms(total) = 0.17897E-01    rms(broyden)= 0.17879E-01
  rms(prec ) = 0.21208E-01
  weight for this iteration     100.00

 eigenvalues of (default mixing * dielectric matrix)
  average eigenvalue GAMMA=   1.4541
  2.7103  1.8720  1.8720  1.2628  1.2628  1.0223  0.9783  0.6524

 Free energy of the ion-electron system (eV)
  ---------------------------------------------------
  alpha Z        PSCENC =       240.34259355
  Ewald energy   TEWEN  =     -2693.37944630
  -Hartree energ DENC   =      -710.30139898
  -exchange      EXHF   =         0.00000000
  -V(xc)+E(xc)   XCENC  =       161.73578294
  PAW double counting   =      4656.22796646    -4642.98253959
  entropy T*S    EENTRO =        -0.00000000
  eigenvalues    EBANDS =      -335.25566266
  atomic energy  EATOM  =      3281.85861458
  Solvation  Ediel_sol  =         0.00000000
  ---------------------------------------------------
  free energy    TOTEN  =       -41.75408999 eV

  energy without entropy =      -41.75408999  energy(sigma->0) =      -41.75408999


--------------------------------------------------------------------------------------------------------




--------------------------------------- Iteration      1(  10)  ---------------------------------------


    POTLOK:  cpu time      0.0045: real time      0.0049
    SETDIJ:  cpu time      0.0009: real time      0.0009
     EDDAV:  cpu time      0.0266: real time      0.0268
       DOS:  cpu time      0.0001: real time      0.0001
    CHARGE:  cpu time      0.0027: real time      0.0027
    MIXING:  cpu time      0.0003: real time      0.0003
    --------------------------------------------
      LOOP:  cpu time      0.0350: real time      0.0356

 eigenvalue-minimisations  :   288
 total energy-change (2. order) :-0.1107345E-03  (-0.1121455E-03)
 number of electron      40.0000103 magnetization 
 augmentation part        0.4092860 magnetization 

 Broyden mixing:
  rms(total) = 0.47734E-02    rms(broyden)= 0.47728E-02
  rms(prec ) = 0.74793E-02
  weight for this iteration     100.00

 eigenvalues of (default mixing * dielectric matrix)
  average eigenvalue GAMMA=   1.4967
  2.9700  2.1884  2.1884  1.2456  1.2456  1.0344  1.0344  0.9054  0.6579

 Free energy of the ion-electron system (eV)
  ---------------------------------------------------
  alpha Z        PSCENC =       240.34259355
  Ewald energy   TEWEN  =     -2693.37944630
  -Hartree energ DENC   =      -710.55298232
  -exchange      EXHF   =         0.00000000
  -V(xc)+E(xc)   XCENC  =       161.74805925
  PAW double counting   =      4640.09838818    -4626.85876791
  entropy T*S    EENTRO =        -0.00000000
  eigenvalues    EBANDS =      -335.01065974
  atomic energy  EATOM  =      3281.85861458
  Solvation  Ediel_sol  =         0.00000000
  ---------------------------------------------------
  free energy    TOTEN  =       -41.75420072 eV

  energy without entropy =      -41.75420072  energy(sigma->0) =      -41.75420072


--------------------------------------------------------------------------------------------------------




--------------------------------------- Iteration      1(  11)  ---------------------------------------


    POTLOK:  cpu time      0.0042: real time      0.0050
    SETDIJ:  cpu time      0.0009: real time      0.0009
     EDDAV:  cpu time      0.0256: real time      0.0257
       DOS:  cpu time      0.0001: real time      0.0001
    CHARGE:  cpu time      0.0026: real time      0.0027
    MIXING:  cpu time      0.0003: real time      0.0003
    --------------------------------------------
      LOOP:  cpu time      0.0337: real time      0.0347

 eigenvalue-minimisations  :   272
 total energy-change (2. order) :-0.4121028E-05  (-0.1556288E-04)
 number of electron      40.0000103 magnetization 
 augmentation part        0.4083573 magnetization 

 Broyden mixing:
  rms(total) = 0.46831E-02    rms(broyden)= 0.46826E-02
  rms(prec ) = 0.56875E-02
  weight for this iteration     100.00

 eigenvalues of (default mixing * dielectric matrix)
  average eigenvalue GAMMA=   1.5441
  3.4663  2.3256  2.0344  1.5248  1.2352  1.2352  1.1023  0.9236  0.9236  0.6697

 Free energy of the ion-electron system (eV)
  ---------------------------------------------------
  alpha Z        PSCENC =       240.34259355
  Ewald energy   TEWEN  =     -2693.37944630
  -Hartree energ DENC   =      -710.57613657
  -exchange      EXHF   =         0.00000000
  -V(xc)+E(xc)   XCENC  =       161.74909613
  PAW double counting   =      4638.46845825    -4625.22922215
  entropy T*S    EENTRO =        -0.00000000
  eigenvalues    EBANDS =      -334.98816234
  atomic energy  EATOM  =      3281.85861458
  Solvation  Ediel_sol  =         0.00000000
  ---------------------------------------------------
  free energy    TOTEN  =       -41.75420484 eV

  energy without entropy =      -41.75420484  energy(sigma->0) =      -41.75420484


--------------------------------------------------------------------------------------------------------




--------------------------------------- Iteration      1(  12)  ---------------------------------------


    POTLOK:  cpu time      0.0049: real time      0.0050
    SETDIJ:  cpu time      0.0010: real time      0.0010
     EDDAV:  cpu time      0.0249: real time      0.0250
       DOS:  cpu time      0.0001: real time      0.0001
    CHARGE:  cpu time      0.0027: real time      0.0027
    MIXING:  cpu time      0.0003: real time      0.0003
    --------------------------------------------
      LOOP:  cpu time      0.0337: real time      0.0340

 eigenvalue-minimisations  :   264
 total energy-change (2. order) : 0.2228258E-05  (-0.1649717E-05)
 number of electron      40.0000103 magnetization 
 augmentation part        0.4078760 magnetization 

 Broyden mixing:
  rms(total) = 0.30885E-02    rms(broyden)= 0.30885E-02
  rms(prec ) = 0.39798E-02
  weight for this iteration     100.00

 eigenvalues of (default mixing * dielectric matrix)
  average eigenvalue GAMMA=   1.6286
  3.6704  2.5337  2.5337  1.8758  1.3022  1.3022  1.0724  1.0724  0.9444  0.9444
  0.6631

 Free energy of the ion-electron system (eV)
  ---------------------------------------------------
  alpha Z        PSCENC =       240.34259355
  Ewald energy   TEWEN  =     -2693.37944630
  -Hartree energ DENC   =      -710.55859604
  -exchange      EXHF   =         0.00000000
  -V(xc)+E(xc)   XCENC  =       161.74740764
  PAW double counting   =      4640.27825356    -4627.02401890
  entropy T*S    EENTRO =        -0.00000000
  eigenvalues    EBANDS =      -335.01901071
  atomic energy  EATOM  =      3281.85861458
  Solvation  Ediel_sol  =         0.00000000
  ---------------------------------------------------
  free energy    TOTEN  =       -41.75420262 eV

  energy without entropy =      -41.75420262  energy(sigma->0) =      -41.75420262


--------------------------------------------------------------------------------------------------------




--------------------------------------- Iteration      1(  13)  ---------------------------------------


    POTLOK:  cpu time      0.0048: real time      0.0050
    SETDIJ:  cpu time      0.0009: real time      0.0009
     EDDAV:  cpu time      0.0255: real time      0.0256
       DOS:  cpu time      0.0001: real time      0.0001
    CHARGE:  cpu time      0.0026: real time      0.0027
    MIXING:  cpu time      0.0003: real time      0.0003
    --------------------------------------------
      LOOP:  cpu time      0.0342: real time      0.0346

 eigenvalue-minimisations  :   272
 total energy-change (2. order) : 0.2118711E-05  (-0.1632428E-05)
 number of electron      40.0000103 magnetization 
 augmentation part        0.4079627 magnetization 

 Broyden mixing:
  rms(total) = 0.68597E-03    rms(broyden)= 0.68577E-03
  rms(prec ) = 0.89925E-03
  weight for this iteration     100.00

 eigenvalues of (default mixing * dielectric matrix)
  average eigenvalue GAMMA=   1.5086
  3.1645  2.6330  2.1695  1.7700  1.3516  1.3516  0.6637  1.0054  1.0054  1.0049
  1.0049  0.9781

 Free energy of the ion-electron system (eV)
  ---------------------------------------------------
  alpha Z        PSCENC =       240.34259355
  Ewald energy   TEWEN  =     -2693.37944630
  -Hartree energ DENC   =      -710.57528020
  -exchange      EXHF   =         0.00000000
  -V(xc)+E(xc)   XCENC  =       161.74727981
  PAW double counting   =      4643.40725510    -4630.13270943
  entropy T*S    EENTRO =        -0.00000000
  eigenvalues    EBANDS =      -335.02250761
  atomic energy  EATOM  =      3281.85861458
  Solvation  Ediel_sol  =         0.00000000
  ---------------------------------------------------
  free energy    TOTEN  =       -41.75420050 eV

  energy without entropy =      -41.75420050  energy(sigma->0) =      -41.75420050


--------------------------------------------------------------------------------------------------------




--------------------------------------- Iteration      1(  14)  ---------------------------------------


    POTLOK:  cpu time      0.0042: real time      0.0050
    SETDIJ:  cpu time      0.0009: real time      0.0009
     EDDAV:  cpu time      0.0181: real time      0.0182
       DOS:  cpu time      0.0001: real time      0.0001
    --------------------------------------------
      LOOP:  cpu time      0.0232: real time      0.0242

 eigenvalue-minimisations  :   168
 total energy-change (2. order) : 0.2396428E-06  (-0.1171417E-06)
 number of electron      40.0000103 magnetization 
 augmentation part        0.4079627 magnetization 

 Free energy of the ion-electron system (eV)
  ---------------------------------------------------
  alpha Z        PSCENC =       240.34259355
  Ewald energy   TEWEN  =     -2693.37944630
  -Hartree energ DENC   =      -710.56947756
  -exchange      EXHF   =         0.00000000
  -V(xc)+E(xc)   XCENC  =       161.74702034
  PAW double counting   =      4643.34447159    -4630.07579402
  entropy T*S    EENTRO =        -0.00000000
  eigenvalues    EBANDS =      -335.02218245
  atomic energy  EATOM  =      3281.85861458
  Solvation  Ediel_sol  =         0.00000000
  ---------------------------------------------------
  free energy    TOTEN  =       -41.75420026 eV

  energy without entropy =      -41.75420026  energy(sigma->0) =      -41.75420026


--------------------------------------------------------------------------------------------------------




 average (electrostatic) potential at core
  the test charge radii are     1.2192  1.0638  0.7215
  (the norm of the test charge is              1.0000)
       1 -33.5850       2 -78.1325       3 -69.4083       4 -69.4083       5 -69.4083
 
 
 
 E-fermi :   3.9131     XC(G=0): -10.7667     alpha+bet :-13.8810

 val. band max:        3.6145086573   @ k =   0.3750   0.3750   0.3750
 cond. band min:       7.6265584044   @ k =   0.1250   0.1250   0.1250
 fundamental gap:      4.0120497471
 Fermi energy:         3.9131313773

 k-point     1 :       0.1250    0.1250    0.1250
  band No.  band energies     occupation 
      1     -43.2282      2.00000
      2     -21.6090      2.00000
      3     -21.4281      2.00000
      4     -21.4281      2.00000
      5     -21.3278      2.00000
      6     -12.4991      2.00000
      7     -12.1927      2.00000
      8     -12.1927      2.00000
      9      -6.6849      2.00000
     10      -6.6849      2.00000
     11      -6.5343      2.00000
     12       1.7089      2.00000
     13       2.1124      2.00000
     14       2.1124      2.00000
     15       2.2298      2.00000
     16       2.2298      2.00000
     17       2.8768      2.00000
     18       2.9233      2.00000
     19       3.1974      2.00000
     20       3.1974      2.00000
     21       7.6266      0.00000
     22       7.6266      0.00000
     23       7.6604      0.00000
     24       9.2123      0.00000

 k-point     2 :       0.3750    0.1250    0.1250
  band No.  band energies     occupation 
      1     -43.2259      2.00000
      2     -21.7322      2.00000
      3     -21.4370      2.00000
      4     -21.4229      2.00000
      5     -21.3291      2.00000
      6     -12.5515      2.00000
      7     -12.1698      2.00000
      8     -11.5532      2.00000
      9      -6.6867      2.00000
     10      -6.6349      2.00000
     11      -6.4923      2.00000
     12       0.4548      2.00000
     13       1.2166      2.00000
     14       1.6396      2.00000
     15       1.7434      2.00000
     16       1.9463      2.00000
     17       2.6572      2.00000
     18       2.8022      2.00000
     19       2.9438      2.00000
     20       2.9704      2.00000
     21       7.9337      0.00000
     22       9.0603      0.00000
     23       9.1600      0.00000
     24      10.3686      0.00000

 k-point     3 :       0.3750    0.3750    0.1250
  band No.  band energies     occupation 
      1     -43.2235      2.00000
      2     -21.6546      2.00000
      3     -21.5999      2.00000
      4     -21.4228      2.00000
      5     -21.3870      2.00000
      6     -12.3356      2.00000
      7     -11.6250      2.00000
      8     -11.6033      2.00000
      9      -6.7909      2.00000
     10      -6.7507      2.00000
     11      -6.5451      2.00000
     12       0.3911      2.00000
     13       0.3962      2.00000
     14       0.5287      2.00000
     15       1.4722      2.00000
     16       1.4723      2.00000
     17       2.4863      2.00000
     18       2.8000      2.00000
     19       2.9613      2.00000
     20       3.5444      2.00000
     21       9.2356      0.00000
     22       9.2695      0.00000
     23       9.7614      0.00000
     24      10.7696      0.00000

 k-point     4 :       0.3750    0.3750    0.3750
  band No.  band energies     occupation 
      1     -43.2212      2.00000
      2     -21.6105      2.00000
      3     -21.5935      2.00000
      4     -21.5935      2.00000
      5     -21.4054      2.00000
      6     -11.6488      2.00000
      7     -11.5371      2.00000
      8     -11.5371      2.00000
      9      -7.0312      2.00000
     10      -7.0312      2.00000
     11      -6.8526      2.00000
     12       0.3999      2.00000
     13       0.3999      2.00000
     14       0.6013      2.00000
     15       0.9768      2.00000
     16       1.2764      2.00000
     17       1.2764      2.00000
     18       3.4455      2.00000
     19       3.4455      2.00000
     20       3.6145      2.00000
     21       9.7221      0.00000
     22       9.8364      0.00000
     23       9.8364      0.00000
     24      10.8795      0.00000


--------------------------------------------------------------------------------------------------------


 soft charge-density along one line, spin component           1
         0         1         2         3         4         5         6         7         8         9
 total charge-density along one line
 
 pseudopotential strength for first ion, spin component:           1
  1.057  -4.900  -0.000  -0.000   0.000  -0.000  -0.000   0.000
 -4.900   0.593   0.000   0.000  -0.000  -0.000  -0.000   0.000
 -0.000   0.000  -7.719  -0.000  -0.000   4.423  -0.000  -0.000
 -0.000   0.000  -0.000  -7.719  -0.000  -0.000   4.423  -0.000
  0.000  -0.000  -0.000  -0.000  -7.719  -0.000  -0.000   4.423
 -0.000  -0.000   4.423  -0.000  -0.000   6.812   0.000   0.000
 -0.000  -0.000  -0.000   4.423  -0.000   0.000   6.812   0.000
  0.000   0.000  -0.000  -0.000   4.423   0.000   0.000   6.812
 -0.000   0.000   0.000   0.000  -0.000   0.000   0.000  -0.000
 -0.000   0.000  -0.000  -0.000   0.000  -0.000  -0.000   0.000
  0.000  -0.000   0.000  -0.000  -0.000   0.000  -0.000   0.000
 -0.000   0.000   0.000   0.000  -0.000   0.000   0.000  -0.000
 -0.000   0.000   0.000  -0.000   0.000   0.000  -0.000   0.000
 -0.000   0.000   0.000   0.000  -0.000   0.000   0.000  -0.000
 -0.000   0.000  -0.000  -0.000   0.000  -0.000  -0.000   0.000
  0.000  -0.000   0.000  -0.000  -0.000   0.000  -0.000   0.000
 -0.000   0.000   0.000   0.000  -0.000   0.000   0.000  -0.000
 -0.000   0.000   0.000  -0.000   0.000   0.000  -0.000   0.000
 total augmentation occupancy for first ion, spin component:           1
  2.002  -0.008   0.000   0.000   0.000   0.000   0.000   0.000   0.000  -0.000  -0.000   0.000  -0.000  -0.000   0.000  -0.000
 -0.008   0.363   0.000   0.000   0.000   0.000   0.000   0.000   0.000  -0.000  -0.000  -0.000   0.000   0.000   0.000   0.000
  0.000   0.000   2.018  -0.000   0.000  -0.009   0.000   0.000   0.000   0.000   0.000   0.000   0.000   0.000   0.000   0.000
  0.000   0.000  -0.000   2.018   0.000  -0.000  -0.009  -0.000   0.000   0.000   0.000   0.000   0.000   0.000   0.000   0.000
  0.000   0.000   0.000   0.000   2.018   0.000   0.000  -0.009   0.000   0.000   0.000   0.000   0.000   0.000   0.000   0.000
  0.000   0.000  -0.009  -0.000   0.000   0.009  -0.000   0.000   0.000   0.000   0.000   0.000   0.000   0.000   0.000   0.000
  0.000   0.000   0.000  -0.009   0.000  -0.000   0.009  -0.000   0.000   0.000   0.000   0.000   0.000   0.000   0.000   0.000
  0.000   0.000   0.000  -0.000  -0.009   0.000  -0.000   0.009   0.000   0.000   0.000   0.000   0.000   0.000   0.000   0.000
  0.000   0.000   0.000   0.000   0.000   0.000   0.000   0.000   2.218   0.000  -0.000   0.000   0.000  -1.154  -0.000  -0.000
 -0.000  -0.000   0.000   0.000   0.000   0.000   0.000   0.000   0.000   2.218  -0.000  -0.000   0.000   0.000  -1.154  -0.000
 -0.000  -0.000   0.000   0.000   0.000   0.000   0.000   0.000  -0.000  -0.000   1.365   0.000   0.000   0.000  -0.000  -0.708
  0.000  -0.000   0.000   0.000   0.000   0.000   0.000   0.000   0.000  -0.000  -0.000   2.218   0.000   0.000  -0.000  -0.000
 -0.000   0.000   0.000   0.000   0.000   0.000   0.000   0.000   0.000   0.000  -0.000  -0.000   1.365   0.000   0.000   0.000
 -0.000   0.000   0.000   0.000   0.000   0.000   0.000   0.000  -1.154   0.000   0.000   0.000   0.000   0.601  -0.000  -0.000
  0.000   0.000   0.000   0.000   0.000   0.000   0.000   0.000  -0.000  -1.154  -0.000  -0.000   0.000  -0.000   0.601   0.000
 -0.000   0.000   0.000   0.000   0.000   0.000   0.000   0.000  -0.000   0.000  -0.708  -0.000   0.000  -0.000   0.000   0.368
 -0.000  -0.000   0.000   0.000   0.000   0.000   0.000   0.000  -0.000  -0.000  -0.000  -1.154   0.000   0.000   0.000   0.000
 -0.000  -0.000   0.000   0.000   0.000   0.000   0.000   0.000   0.000  -0.000  -0.000  -0.000  -0.708   0.000   0.000  -0.000


------------------------ aborting loop because EDIFF is reached ----------------------------------------


    CHARGE:  cpu time      0.0027: real time      0.0028
    FORLOC:  cpu time      0.0004: real time      0.0004
    FORNL :  cpu time      0.0027: real time      0.0027
    STRESS:  cpu time      0.0624: real time      0.0628
    FORCOR:  cpu time      0.0042: real time      0.0042
    FORHAR:  cpu time      0.0009: real time      0.0009
    MIXING:  cpu time      0.0003: real time      0.0003
    OFIELD:  cpu time      0.0001: real time      0.0001

  FORCE on cell =-STRESS in cart. coord.  units (eV):
  Direction    XX          YY          ZZ          XY          YZ          ZX
  --------------------------------------------------------------------------------------
  Alpha Z   240.34259   240.34259   240.34259
  Ewald    -897.79392  -897.79392  -897.79392     0.00000    -0.00000    -0.00000
  Hartree   236.85661   236.85661   236.85661    -0.00000    -0.00000    -0.00000
  E(xc)    -175.90419  -175.90419  -175.90419     0.00000     0.00000    -0.00000
  Local     -61.89513   -61.89513   -61.89513    -0.00000     0.00000     0.00000
  n-local  -124.97256  -119.67290  -113.71614     0.13354     0.37278     0.22362
  augment    13.47962    13.47962    13.47962    -0.00000     0.00000     0.00000
  Kinetic   759.58345   767.08753   767.74306    -3.56362    -4.56233    -3.81918
  Fock        0.00000     0.00000     0.00000     0.00000     0.00000     0.00000
  -------------------------------------------------------------------------------------
  Total       0.43640     0.43640     0.43640    -0.00000     0.00000     0.00000
  in kB       9.49146     9.49146     9.49146    -0.00000     0.00000     0.00000
  external pressure =        9.49 kB  Pullay stress =        0.00 kB


 VOLUME and BASIS-vectors are now :
 -----------------------------------------------------------------------------
  energy-cutoff  :      400.00
  volume of cell :       73.67
      direct lattice vectors                 reciprocal lattice vectors
     4.192000000  0.000000000  0.000000000     0.238549618  0.000000000  0.000000000
     0.000000000  4.192000000  0.000000000     0.000000000  0.238549618  0.000000000
     0.000000000  0.000000000  4.192000000     0.000000000  0.000000000  0.238549618

  length of vectors
     4.192000000  4.192000000  4.192000000     0.238549618  0.238549618  0.238549618


 FORCES acting on ions
    electron-ion (+dipol)            ewald-force                    non-local-force                 convergence-correction
 -----------------------------------------------------------------------------------------------
   -.166E-14 -.169E-14 -.103E-14   -.367E-14 -.107E-14 -.461E-14   0.556E-26 -.363E-26 0.568E-26   -.570E-14 0.368E-15 -.855E-14
   0.155E-12 -.186E-11 -.268E-11   0.536E-14 0.798E-14 0.754E-14   0.445E-26 0.419E-26 -.463E-27   0.291E-13 -.779E-14 0.303E-13
   0.174E-12 -.163E-11 -.535E-12   0.720E-14 0.306E-14 -.647E-14   -.181E-23 0.486E-25 0.227E-26   -.156E-13 -.107E-13 -.342E-13
   0.174E-12 -.185E-14 -.224E-11   0.153E-15 -.939E-14 0.201E-14   -.162E-23 0.269E-26 -.194E-23   -.118E-13 0.309E-15 0.102E-13
   -.318E-14 0.174E-12 0.169E-12   -.906E-14 0.514E-15 0.200E-14   0.348E-26 0.108E-24 -.209E-23   -.235E-13 0.179E-14 0.208E-13
 -----------------------------------------------------------------------------------------------
   0.499E-12 -.332E-11 -.528E-11   -.209E-16 0.110E-14 0.468E-15   -.341E-23 0.160E-24 -.402E-23   -.275E-13 -.160E-13 0.186E-13
 
 
 POSITION                                       TOTAL-FORCE (eV/Angst)
 -----------------------------------------------------------------------------------
      0.00000      0.00000      0.00000        -0.000000      0.000000     -0.000000
      2.09600      2.09600      2.09600         0.000000     -0.000000      0.000000
      2.09600      2.09600      0.00000        -0.000000      0.000000     -0.000000
      2.09600      0.00000      2.09600        -0.000000      0.000000     -0.000000
      0.00000      2.09600      2.09600        -0.000000      0.000000     -0.000000
 -----------------------------------------------------------------------------------
    total drift:                                0.000000     -0.000000     -0.000000


--------------------------------------------------------------------------------------------------------



  FREE ENERGIE OF THE ION-ELECTRON SYSTEM (eV)
  ---------------------------------------------------
  free  energy   TOTEN  =       -41.75420026 eV

  energy  without entropy=      -41.75420026  energy(sigma->0) =      -41.75420026
 


--------------------------------------------------------------------------------------------------------


    POTLOK:  cpu time      0.0052: real time      0.0052


--------------------------------------------------------------------------------------------------------


 stress matrix after NEB project (eV)
      0.43640      0.00000      0.00000
     -0.00000      0.43640     -0.00000
      0.00000      0.00000      0.43640
  FORCES: max atom, RMS     0.000000    0.000000
  FORCE total and by dimension    0.000000    0.000000
  Stress total and by dimension    0.755870    0.436402


--------------------------------------------------------------------------------------------------------


  
 reached required accuracy - stopping structural energy minimisation
 writing wavefunctions
     LOOP+:  cpu time      0.6913: real time      1.4633
    4ORBIT:  cpu time      0.0000: real time      0.0000

 total amount of memory used by VASP MPI-rank0    34819. kBytes
=======================================================================

   base      :      30000. kBytes
   nonl-proj :       2458. kBytes
   fftplans  :        537. kBytes
   grid      :       1474. kBytes
   one-center:         77. kBytes
   wavefun   :        273. kBytes
 
  
  
 General timing and accounting informations for this job:
 ========================================================
  
                  Total CPU time used (sec):        1.351
                            User time (sec):        0.852
                          System time (sec):        0.500
                         Elapsed time (sec):        7.026
  
                   Maximum memory used (kb):      344340.
                   Average memory used (kb):          N/A
  
                          Minor page faults:        22407
                          Major page faults:         1720
                 Voluntary context switches:         5727
