<?xml version="1.0" encoding="ISO-8859-1"?>
<modeling>
 <generator>
  <i name="program" type="string">vasp </i>
  <i name="version" type="string">6.4.3  </i>
  <i name="subversion" type="string">19Mar24 (build Jul 01 2024 12:12:31) complex                          parallel </i>
  <i name="platform" type="string">LinuxIFC </i>
  <i name="date" type="string">2024 10 21 </i>
  <i name="time" type="string">19:22:28 </i>
 </generator>
 <incar>
  <i type="string" name="SYSTEM">BaZrO3</i>
  <i type="string" name="PREC">Normal</i>
  <i type="int" name="NELM">   100</i>
  <i type="int" name="IBRION">     2</i>
  <i name="EDIFF">      0.00000100</i>
  <i type="int" name="NSW">   500</i>
  <i name="ENCUT">    400.00000000</i>
  <i type="int" name="NBANDS">   100</i>
  <i name="POTIM">      0.10000000</i>
  <i type="int" name="ISMEAR">     0</i>
  <i name="SIGMA">      0.05000000</i>
  <i type="int" name="LORBIT">    11</i>
 </incar>
 <primitive_cell>
  <structure name="primitive_cell" >
   <crystal>
    <varray name="basis" >
     <v>       4.19200000       0.00000000       0.00000000 </v>
     <v>       0.00000000       4.19200000       0.00000000 </v>
     <v>       0.00000000       0.00000000       4.19200000 </v>
    </varray>
    <i name="volume">     73.66544589 </i>
    <varray name="rec_basis" >
     <v>       0.23854962       0.00000000       0.00000000 </v>
     <v>       0.00000000       0.23854962       0.00000000 </v>
     <v>       0.00000000       0.00000000       0.23854962 </v>
    </varray>
   </crystal>
   <varray name="positions" >
    <v>       0.00000000       0.00000000       0.00000000 </v>
    <v>       0.50000000       0.50000000       0.50000000 </v>
    <v>       0.50000000       0.50000000       0.00000000 </v>
    <v>       0.50000000       0.00000000       0.50000000 </v>
    <v>       0.00000000       0.50000000       0.50000000 </v>
   </varray>
  </structure>
  <varray name="primitive_index" >
   <v type="int" >        1 </v>
   <v type="int" >        2 </v>
   <v type="int" >        3 </v>
   <v type="int" >        4 </v>
   <v type="int" >        5 </v>
  </varray>
 </primitive_cell>
 <kpoints>
  <generation param="Gamma">
   <v type="int" name="divisions">       4        4        4 </v>
   <v name="usershift">      0.00000000       0.00000000       0.00000000 </v>
   <v name="genvec1">      0.25000000       0.00000000       0.00000000 </v>
   <v name="genvec2">      0.00000000       0.25000000       0.00000000 </v>
   <v name="genvec3">      0.00000000       0.00000000       0.25000000 </v>
   <v name="shift">      0.00000000       0.00000000       0.00000000 </v>
  </generation>
  <varray name="kpointlist" >
   <v>       0.00000000       0.00000000       0.00000000 </v>
   <v>       0.25000000       0.00000000       0.00000000 </v>
   <v>       0.50000000       0.00000000       0.00000000 </v>
   <v>       0.25000000       0.25000000       0.00000000 </v>
   <v>       0.50000000       0.25000000       0.00000000 </v>
   <v>       0.50000000       0.50000000       0.00000000 </v>
   <v>       0.25000000       0.25000000       0.25000000 </v>
   <v>       0.50000000       0.25000000       0.25000000 </v>
   <v>       0.50000000       0.50000000       0.25000000 </v>
   <v>       0.50000000       0.50000000       0.50000000 </v>
  </varray>
  <varray name="weights" >
   <v>       0.01562500 </v>
   <v>       0.09375000 </v>
   <v>       0.04687500 </v>
   <v>       0.18750000 </v>
   <v>       0.18750000 </v>
   <v>       0.04687500 </v>
   <v>       0.12500000 </v>
   <v>       0.18750000 </v>
   <v>       0.09375000 </v>
   <v>       0.01562500 </v>
  </varray>
 </kpoints>
 <parameters>
  <separator name="general" >
   <i type="string" name="SYSTEM">BaZrO3</i>
   <i type="logical" name="LCOMPAT"> F  </i>
  </separator>
  <separator name="electronic" >
   <i type="string" name="PREC">normal</i>
   <i name="ENMAX">    400.00000000</i>
   <i name="ENAUG">    605.39200000</i>
   <i name="EDIFF">      0.00000100</i>
   <i type="int" name="IALGO">    38</i>
   <i type="int" name="IWAVPR">    11</i>
   <i type="int" name="NBANDS">   104</i>
   <i type="int" name="NBANDSLOW">    -1</i>
   <i type="int" name="NBANDSHIGH">    -1</i>
   <i name="NELECT">     40.00000000</i>
   <i type="int" name="TURBO">     0</i>
   <i type="int" name="IRESTART">     0</i>
   <i type="int" name="NREBOOT">     0</i>
   <i type="int" name="NMIN">     0</i>
   <i name="EREF">      0.00000000</i>
   <separator name="electronic smearing" >
    <i type="int" name="ISMEAR">     0</i>
    <i name="SIGMA">      0.05000000</i>
    <i name="KSPACING">      0.50000000</i>
    <i type="logical" name="KGAMMA"> T  </i>
    <i type="logical" name="KBLOWUP"> T  </i>
   </separator>
   <separator name="electronic projectors" >
    <i type="logical" name="LREAL"> F  </i>
    <v name="ROPT">      0.00000000      0.00000000      0.00000000</v>
    <i type="int" name="LMAXPAW">  -100</i>
    <i type="int" name="LMAXMIX">     2</i>
    <i type="logical" name="NLSPLINE"> F  </i>
   </separator>
   <separator name="electronic startup" >
    <i type="int" name="ISTART">     1</i>
    <i type="int" name="ICHARG">     0</i>
    <i type="int" name="INIWAV">     1</i>
   </separator>
   <separator name="electronic spin" >
    <i type="int" name="ISPIN">     1</i>
    <i type="logical" name="LNONCOLLINEAR"> F  </i>
    <v name="MAGMOM">      1.00000000      1.00000000      1.00000000      1.00000000      1.00000000</v>
    <i name="NUPDOWN">     -1.00000000</i>
    <i type="logical" name="LSORBIT"> F  </i>
    <v name="SAXIS">      0.00000000      0.00000000      1.00000000</v>
    <i type="logical" name="LSPIRAL"> F  </i>
    <v name="QSPIRAL">      0.00000000      0.00000000      0.00000000</v>
    <i type="logical" name="LZEROZ"> F  </i>
   </separator>
   <separator name="electronic exchange-correlation" >
    <i type="logical" name="LASPH"> F  </i>
   </separator>
   <separator name="electronic convergence" >
    <i type="int" name="NELM">   100</i>
    <i type="int" name="NELMDL">     0</i>
    <i type="int" name="NELMIN">     2</i>
    <i name="ENINI">    400.00000000</i>
    <separator name="electronic convergence detail" >
     <i type="logical" name="LDIAG"> T  </i>
     <i type="logical" name="LSUBROT"> F  </i>
     <i name="WEIMIN">      0.00100000</i>
     <i name="EBREAK">      0.00000000</i>
     <i name="DEPER">      0.30000000</i>
     <i type="int" name="NRMM">     4</i>
     <i name="TIME">      0.40000000</i>
    </separator>
   </separator>
   <separator name="electronic mixer" >
    <i name="AMIX">      0.40000000</i>
    <i name="BMIX">      1.00000000</i>
    <i name="AMIN">      0.10000000</i>
    <i name="AMIX_MAG">      1.60000000</i>
    <i name="BMIX_MAG">      1.00000000</i>
    <separator name="electronic mixer details" >
     <i type="int" name="IMIX">     4</i>
     <i type="logical" name="MIXFIRST"> F  </i>
     <i type="int" name="MAXMIX">   -45</i>
     <i name="WC">    100.00000000</i>
     <i type="int" name="INIMIX">     1</i>
     <i type="int" name="MIXPRE">     1</i>
     <i type="int" name="MREMOVE">     5</i>
    </separator>
   </separator>
   <separator name="electronic dipolcorrection" >
    <i type="logical" name="LDIPOL"> F  </i>
    <i type="logical" name="LMONO"> F  </i>
    <i type="int" name="IDIPOL">     0</i>
    <i name="EPSILON">      1.00000000</i>
    <v name="DIPOL">   -100.00000000   -100.00000000   -100.00000000</v>
    <i name="EFIELD">      0.00000000</i>
    <i type="logical" name="LVACPOTAV"> F  </i>
   </separator>
  </separator>
  <separator name="grids" >
   <i type="int" name="NGX">    24</i>
   <i type="int" name="NGY">    24</i>
   <i type="int" name="NGZ">    24</i>
   <i type="int" name="NGXF">    48</i>
   <i type="int" name="NGYF">    48</i>
   <i type="int" name="NGZF">    48</i>
   <i type="logical" name="ADDGRID"> F  </i>
  </separator>
  <separator name="ionic" >
   <i type="int" name="NSW">   500</i>
   <i type="int" name="IBRION">     2</i>
   <i type="int" name="MDALGO">     0</i>
   <i type="int" name="ISIF">     2</i>
   <i name="PSTRESS">      0.00000000</i>
   <i name="EDIFFG">      0.00001000</i>
   <i type="int" name="NFREE">     1</i>
   <i name="POTIM">      0.10000000</i>
   <i name="SMASS">     -3.00000000</i>
   <i name="SCALEE">      1.00000000</i>
  </separator>
  <separator name="ionic md" >
   <i name="TEBEG">      0.00010000</i>
   <i name="TEEND">      0.00010000</i>
   <i type="int" name="NBLOCK">     1</i>
   <i type="int" name="KBLOCK">   500</i>
   <i type="int" name="NPACO">   256</i>
   <i name="APACO">     10.00000000</i>
  </separator>
  <separator name="symmetry" >
   <i type="int" name="ISYM">     2</i>
   <i name="SYMPREC">      0.00001000</i>
  </separator>
  <separator name="dos" >
   <i type="int" name="LORBIT">    11</i>
   <v name="RWIGS">     -1.00000000     -1.00000000     -1.00000000</v>
   <i type="int" name="NEDOS">   301</i>
   <i name="EMIN">     10.00000000</i>
   <i name="EMAX">    -10.00000000</i>
   <i name="EFERMI">      0.00000000</i>
  </separator>
  <separator name="writing" >
   <i type="int" name="NWRITE">     2</i>
   <i type="logical" name="LWAVE"> T  </i>
   <i type="logical" name="LDOWNSAMPLE"> F  </i>
   <i type="logical" name="LCHARG"> T  </i>
   <i type="logical" name="LPARD"> F  </i>
   <i type="logical" name="LVTOT"> F  </i>
   <i type="logical" name="LVHAR"> F  </i>
   <i type="logical" name="LELF"> F  </i>
   <i type="logical" name="LOPTICS"> F  </i>
   <v name="STM">      0.00000000      0.00000000      0.00000000      0.00000000      0.00000000      0.00000000      0.00000000</v>
  </separator>
  <separator name="performance" >
   <i type="int" name="NPAR">     8</i>
   <i type="int" name="NSIM">     4</i>
   <i type="int" name="NBLK">    -1</i>
   <i type="logical" name="LPLANE"> T  </i>
   <i type="logical" name="LSCALAPACK"> T  </i>
   <i type="logical" name="LSCAAWARE"> F  </i>
   <i type="logical" name="LSCALU"> F  </i>
   <i type="logical" name="LASYNC"> F  </i>
   <i type="logical" name="LORBITALREAL"> F  </i>
  </separator>
  <separator name="miscellaneous" >
   <i type="int" name="IDIOT">     3</i>
   <i type="int" name="PHON_NSTRUCT">    -1</i>
   <i type="logical" name="LMUSIC"> F  </i>
   <v name="POMASS">    137.32700000     91.22400000     16.00000000</v>
   <v name="DARWINR">      0.00000000      0.00000000      0.00000000</v>
   <v name="DARWINV">      1.00000000      1.00000000      1.00000000</v>
   <i type="logical" name="LCORR"> T  </i>
  </separator>
  <i type="logical" name="GGA_COMPAT"> T  </i>
  <i type="logical" name="LBERRY"> F  </i>
  <i type="int" name="ICORELEVEL">     0</i>
  <i type="logical" name="LDAU"> F  </i>
  <i type="int" name="I_CONSTRAINED_M">     0</i>
  <separator name="electronic exchange-correlation" >
   <i type="string" name="GGA    ">PE</i>
   <i type="string" name="XC_C">1</i>
   <i type="int" name="VOSKOWN">     0</i>
   <i type="logical" name="LHFCALC"> F  </i>
   <i type="string" name="PRECFOCK"></i>
   <i type="logical" name="LSYMGRAD"> F  </i>
   <i type="logical" name="LHFONE"> F  </i>
   <i type="logical" name="LRHFCALC"> F  </i>
   <i type="logical" name="LTHOMAS"> F  </i>
   <i type="logical" name="LMODELHF"> F  </i>
   <i type="logical" name="LFOCKACE"> F  </i>
   <i name="ENCUT4O">     -1.00000000</i>
   <i type="int" name="EXXOEP">     0</i>
   <i type="int" name="FOURORBIT">     0</i>
   <i name="AEXX">      0.00000000</i>
   <i name="HFALPHA">      0.00000000</i>
   <i name="MCALPHA">      0.00000000</i>
   <i name="ALDAX">      1.00000000</i>
   <i name="AGGAX">      1.00000000</i>
   <i name="AMGGAX">      1.00000000</i>
   <i name="ALDAC">      1.00000000</i>
   <i name="AGGAC">      1.00000000</i>
   <i name="AMGGAC">      1.00000000</i>
   <i type="int" name="NKREDX">     1</i>
   <i type="int" name="NKREDY">     1</i>
   <i type="int" name="NKREDZ">     1</i>
   <i type="logical" name="SHIFTRED"> F  </i>
   <i type="logical" name="ODDONLY"> F  </i>
   <i type="logical" name="EVENONLY"> F  </i>
   <i type="int" name="LMAXFOCK">     0</i>
   <i type="int" name="NMAXFOCKAE">     0</i>
   <i type="logical" name="LFOCKAEDFT"> F  </i>
   <i name="HFSCREEN">      0.00000000</i>
   <i name="HFSCREENC">      0.00000000</i>
   <i type="int" name="NBANDSGWLOW">     0</i>
  </separator>
  <separator name="vdW DFT" >
   <i type="logical" name="LUSE_VDW"> F  </i>
   <i type="int" name="IVDW_NL">    -1</i>
   <i type="logical" name="LSPIN_VDW"> F  </i>
   <i name="ZAB_VDW">     -0.84910000</i>
   <i name="GAMMA_VDW">      1.39626340</i>
   <i name="ALPHA_VDW">      0.00000000</i>
   <i name="PARAM1">      0.12340000</i>
   <i name="PARAM2">      1.00000000</i>
   <i name="BPARAM">      6.30000000</i>
   <i name="CPARAM">      0.00930000</i>
  </separator>
  <separator name="model GW" >
   <i type="int" name="MODEL_GW">     0</i>
   <i name="MODEL_EPS0">      8.83985351</i>
   <i name="MODEL_ALPHA">      1.00000000</i>
  </separator>
  <separator name="linear response parameters" >
   <i type="logical" name="LEPSILON"> F  </i>
   <i type="logical" name="LRPA"> F  </i>
   <i type="logical" name="LNABLA"> F  </i>
   <i type="logical" name="LVEL"> F  </i>
   <i name="CSHIFT">      0.10000000</i>
   <i name="OMEGAMAX">     -1.00000000</i>
   <i name="DEG_THRESHOLD">      0.00200000</i>
   <i name="RTIME">     -0.10000000</i>
   <i name="WPLASMAI">      0.00000000</i>
   <v name="DFIELD">      0.00000000      0.00000000      0.00000000</v>
   <v name="WPLASMA">      0.00000000      0.00000000      0.00000000      0.00000000      0.00000000      0.00000000      0.00000000      0.00000000      0.00000000</v>
  </separator>
  <separator name="orbital magnetization" >
   <i type="logical" name="NUCIND"> F  </i>
   <v name="MAGPOS">      0.00000000      0.00000000      0.00000000</v>
   <i type="logical" name="LNICSALL"> T  </i>
   <i type="logical" name="ORBITALMAG"> F  </i>
   <i type="logical" name="LMAGBLOCH"> F  </i>
   <i type="logical" name="LCHIMAG"> F  </i>
   <i type="logical" name="LGAUGE"> T  </i>
   <i type="int" name="MAGATOM">     0</i>
   <v name="MAGDIPOL">      0.00000000      0.00000000      0.00000000</v>
   <v name="AVECCONST">      0.00000000      0.00000000      0.00000000</v>
  </separator>
  <separator name="response functions" >
   <i type="logical" name="LALL_IN_ONE"> F  </i>
   <i type="int" name="IALL_IN_ONE">    -1</i>
   <i type="int" name="NBANDS_WAVE">    -1</i>
   <i type="logical" name="LFINITE_TEMPERATURE"> F  </i>
   <i type="logical" name="LADDER"> F  </i>
   <i type="logical" name="LRPAFORCE"> F  </i>
   <i type="logical" name="LFXC"> F  </i>
   <i type="logical" name="LHARTREE"> T  </i>
   <i type="int" name="IBSE">     0</i>
   <v type="int" name="KPOINT">    -1     0     0     0</v>
   <i type="logical" name="LTCTC"> F  </i>
   <i type="logical" name="LTCTE"> F  </i>
   <i type="logical" name="LTETE"> F  </i>
   <i type="logical" name="LTRIPLET"> F  </i>
   <i type="logical" name="LFXCEPS"> F  </i>
   <i type="logical" name="LFXHEG"> F  </i>
   <i type="int" name="NATURALO">     2</i>
   <i type="logical" name="LHOLEGF"> F  </i>
   <i type="logical" name="L2ORDER"> F  </i>
   <i type="logical" name="LDMP1"> F  </i>
   <i type="logical" name="LMP2LT"> F  </i>
   <i type="logical" name="LSMP2LT"> F  </i>
   <i type="logical" name="LGWLF"> F  </i>
   <i name="ENCUTGW">     -1.60000002</i>
   <i name="ENCUTGWSOFT">     -1.60000002</i>
   <i name="ENCUTLF">     -1.00000000</i>
   <i type="logical" name="ESF_SPLINES"> F  </i>
   <i name="ESF_CONV">      0.01000000</i>
   <i type="int" name="ESF_NINTER">    15</i>
   <i type="int" name="LMAXMP2">    -1</i>
   <i name="SCISSOR">      0.00000000</i>
   <i type="int" name="NOMEGA">     0</i>
   <i type="int" name="NOMEGAR">     0</i>
   <i type="int" name="NBANDSGW">    -1</i>
   <i type="int" name="NBANDSO">    -1</i>
   <i type="int" name="NBANDSV">    -1</i>
   <i type="int" name="NELMGW">     1</i>
   <i type="int" name="NELMHF">     1</i>
   <i type="int" name="DIM">     3</i>
   <i type="int" name="IESPILON">     4</i>
   <i type="int" name="ANTIRES">     0</i>
   <i name="OMEGAMAX">    -30.00000000</i>
   <i name="OMEGAMIN">    -30.00000000</i>
   <i name="OMEGATL">   -200.00000000</i>
   <i type="int" name="OMEGAGRID">     0</i>
   <i name="CSHIFT">     -0.10000000</i>
   <i type="logical" name="LSELFENERGY"> F  </i>
   <i type="logical" name="LSPECTRAL"> F  </i>
   <i type="logical" name="LSPECTRALGW"> F  </i>
   <i type="logical" name="LSINGLES"> F  </i>
   <i type="logical" name="LFERMIGW"> F  </i>
   <i type="logical" name="ODDONLYGW"> F  </i>
   <i type="logical" name="EVENONLYGW"> F  </i>
   <i type="int" name="NKREDLFX">     1</i>
   <i type="int" name="NKREDLFY">     1</i>
   <i type="int" name="NKREDLFZ">     1</i>
   <i type="int" name="MAXMEM">  2800</i>
   <i type="int" name="TELESCOPE">     0</i>
   <i type="int" name="NTAUPAR">    -1</i>
   <i type="int" name="NOMEGAPAR">    -1</i>
   <i name="DAMP_NEWTON">      0.80000001</i>
   <i name="LAMBDA">      1.00000000</i>
  </separator>
  <separator name="External order field" >
   <i name="OFIELD_KAPPA">      0.00000000</i>
   <v name="OFIELD_K">      0.00000000      0.00000000      0.00000000</v>
   <i name="OFIELD_Q6_NEAR">      0.00000000</i>
   <i name="OFIELD_Q6_FAR">      0.00000000</i>
   <i name="OFIELD_A">      0.00000000</i>
  </separator>
  <separator name="optional k-points parameters" >
   <i type="int" name="KPOINTS_OPT_MODE">     1</i>
   <i type="logical" name="LKPOINTS_OPT"> F  </i>
  </separator>
 </parameters>
 <atominfo>
  <atoms>       5 </atoms>
  <types>       3 </types>
  <array name="atoms" >
   <dimension dim="1">ion</dimension>
   <field type="string">element</field>
   <field type="int">atomtype</field>
   <set>
    <rc><c>Ba</c><c>   1</c></rc>
    <rc><c>Zr</c><c>   2</c></rc>
    <rc><c>O </c><c>   3</c></rc>
    <rc><c>O </c><c>   3</c></rc>
    <rc><c>O </c><c>   3</c></rc>
   </set>
  </array>
  <array name="atomtypes" >
   <dimension dim="1">type</dimension>
   <field type="int">atomspertype</field>
   <field type="string">element</field>
   <field>mass</field>
   <field>valence</field>
   <field type="string">pseudopotential</field>
   <set>
    <rc><c>   1</c><c>Ba</c><c>    137.32700000</c><c>     10.00000000</c><c>  PAW_PBE Ba_sv 06Sep2000               </c></rc>
    <rc><c>   1</c><c>Zr</c><c>     91.22400000</c><c>     12.00000000</c><c>  PAW_PBE Zr_sv 04Jan2005               </c></rc>
    <rc><c>   3</c><c>O </c><c>     16.00000000</c><c>      6.00000000</c><c>  PAW_PBE O 08Apr2002                   </c></rc>
   </set>
  </array>
 </atominfo>
 <structure name="initialpos" >
  <crystal>
   <varray name="basis" >
    <v>       4.19200000       0.00000000       0.00000000 </v>
    <v>       0.00000000       4.19200000       0.00000000 </v>
    <v>       0.00000000       0.00000000       4.19200000 </v>
   </varray>
   <i name="volume">     73.66544589 </i>
   <varray name="rec_basis" >
    <v>       0.23854962       0.00000000       0.00000000 </v>
    <v>       0.00000000       0.23854962       0.00000000 </v>
    <v>       0.00000000       0.00000000       0.23854962 </v>
   </varray>
  </crystal>
  <varray name="positions" >
   <v>       0.00000000       0.00000000       0.00000000 </v>
   <v>       0.50000000       0.50000000       0.50000000 </v>
   <v>       0.50000000       0.50000000       0.00000000 </v>
   <v>       0.50000000       0.00000000       0.50000000 </v>
   <v>       0.00000000       0.50000000       0.50000000 </v>
  </varray>
 </structure>
 <calculation>
  <scstep>
   <time name="dav">    0.30    0.90</time>
   <time name="total">    0.32    0.94</time>
   <energy>
    <i name="alphaZ">    240.34259355 </i>
    <i name="ewald">  -2693.37944630 </i>
    <i name="hartreedc">   -727.41795014 </i>
    <i name="XCdc">    162.15122333 </i>
    <i name="pawpsdc">   5346.38615828 </i>
    <i name="pawaedc">  -5328.54649219 </i>
    <i name="eentropy">     -0.00000000 </i>
    <i name="bandstr">   -314.14085268 </i>
    <i name="atom">   3281.85861458 </i>
    <i name="e_fr_energy">    -32.74615156 </i>
    <i name="e_wo_entrp">    -32.74615156 </i>
    <i name="e_0_energy">    -32.74615156 </i>
   </energy>
  </scstep>
  <scstep>
   <time name="dav">    0.24    0.24</time>
   <time name="total">    0.25    0.26</time>
   <energy>
    <i name="e_fr_energy">    -41.57246584 </i>
    <i name="e_wo_entrp">    -41.57246584 </i>
    <i name="e_0_energy">    -41.57246584 </i>
   </energy>
  </scstep>
  <scstep>
   <time name="dav">    0.23    0.23</time>
   <time name="total">    0.24    0.27</time>
   <energy>
    <i name="e_fr_energy">    -41.77833043 </i>
    <i name="e_wo_entrp">    -41.77833043 </i>
    <i name="e_0_energy">    -41.77833043 </i>
   </energy>
  </scstep>
  <scstep>
   <time name="dav">    0.24    0.24</time>
   <time name="total">    0.25    0.27</time>
   <energy>
    <i name="e_fr_energy">    -41.75137061 </i>
    <i name="e_wo_entrp">    -41.75137061 </i>
    <i name="e_0_energy">    -41.75137061 </i>
   </energy>
  </scstep>
  <scstep>
   <time name="dav">    0.29    0.29</time>
   <time name="total">    0.30    0.31</time>
   <energy>
    <i name="e_fr_energy">    -41.75801858 </i>
    <i name="e_wo_entrp">    -41.75801858 </i>
    <i name="e_0_energy">    -41.75801858 </i>
   </energy>
  </scstep>
  <scstep>
   <time name="dav">    0.26    0.26</time>
   <time name="total">    0.27    0.27</time>
   <energy>
    <i name="e_fr_energy">    -41.73253959 </i>
    <i name="e_wo_entrp">    -41.73253959 </i>
    <i name="e_0_energy">    -41.73253959 </i>
   </energy>
  </scstep>
  <scstep>
   <time name="dav">    0.23    0.23</time>
   <time name="total">    0.24    0.25</time>
   <energy>
    <i name="e_fr_energy">    -41.73264308 </i>
    <i name="e_wo_entrp">    -41.73264308 </i>
    <i name="e_0_energy">    -41.73264308 </i>
   </energy>
  </scstep>
  <scstep>
   <time name="dav">    0.24    0.24</time>
   <time name="total">    0.25    0.25</time>
   <energy>
    <i name="e_fr_energy">    -41.73261543 </i>
    <i name="e_wo_entrp">    -41.73261543 </i>
    <i name="e_0_energy">    -41.73261543 </i>
   </energy>
  </scstep>
  <scstep>
   <time name="dav">    0.23    0.23</time>
   <time name="total">    0.24    0.25</time>
   <energy>
    <i name="alphaZ">    240.34259355 </i>
    <i name="ewald">  -2693.37944630 </i>
    <i name="hartreedc">   -710.50107224 </i>
    <i name="XCdc">    161.74700589 </i>
    <i name="pawpsdc">   4638.97474155 </i>
    <i name="pawaedc">  -4625.75552838 </i>
    <i name="eentropy">     -0.00000000 </i>
    <i name="bandstr">   -335.01952381 </i>
    <i name="atom">   3281.85861458 </i>
    <i name="e_fr_energy">    -41.73261516 </i>
    <i name="e_wo_entrp">    -41.73261516 </i>
    <i name="e_0_energy">    -41.73261516 </i>
   </energy>
  </scstep>
  <structure>
   <crystal>
    <varray name="basis" >
     <v>       4.19200000       0.00000000       0.00000000 </v>
     <v>       0.00000000       4.19200000       0.00000000 </v>
     <v>       0.00000000       0.00000000       4.19200000 </v>
    </varray>
    <i name="volume">     73.66544589 </i>
    <varray name="rec_basis" >
     <v>       0.23854962       0.00000000       0.00000000 </v>
     <v>       0.00000000       0.23854962       0.00000000 </v>
     <v>       0.00000000       0.00000000       0.23854962 </v>
    </varray>
   </crystal>
   <varray name="positions" >
    <v>       0.00000000       0.00000000       0.00000000 </v>
    <v>       0.50000000       0.50000000       0.50000000 </v>
    <v>       0.50000000       0.50000000       0.00000000 </v>
    <v>       0.50000000       0.00000000       0.50000000 </v>
    <v>       0.00000000       0.50000000       0.50000000 </v>
   </varray>
  </structure>
  <varray name="forces" >
   <v>       0.00000000       0.00000000       0.00000000 </v>
   <v>      -0.00000000      -0.00000000      -0.00000000 </v>
   <v>      -0.00000000       0.00000000       0.00000000 </v>
   <v>       0.00000000       0.00000000      -0.00000000 </v>
   <v>       0.00000000      -0.00000000       0.00000000 </v>
  </varray>
  <varray name="stress" >
   <v>       9.76706898      -0.00000000      -0.00000000 </v>
   <v>      -0.00000000       9.76706898      -0.00000000 </v>
   <v>       0.00000000       0.00000000       9.76706898 </v>
  </varray>
  <energy>
   <i name="e_fr_energy">    -41.73261516 </i>
   <i name="e_wo_entrp">    -41.73261516 </i>
   <i name="e_0_energy">    -41.73261516 </i>
  </energy>
  <time name="totalsc">    2.66    3.37</time>
  <eigenvalues>
   <array>
    <dimension dim="1">band</dimension>
    <dimension dim="2">kpoint</dimension>
    <dimension dim="3">spin</dimension>
    <field>eigene</field>
    <field>occ</field>
    <set>
     <set comment="spin 1">
      <set comment="kpoint 1">
       <r>  -43.2458    1.0000 </r>
       <r>  -21.5323    1.0000 </r>
       <r>  -21.4065    1.0000 </r>
       <r>  -21.4065    1.0000 </r>
       <r>  -21.4065    1.0000 </r>
       <r>  -12.5892    1.0000 </r>
       <r>  -12.3104    1.0000 </r>
       <r>  -12.3104    1.0000 </r>
       <r>   -6.6673    1.0000 </r>
       <r>   -6.6673    1.0000 </r>
       <r>   -6.6673    1.0000 </r>
       <r>    2.3270    1.0000 </r>
       <r>    2.3270    1.0000 </r>
       <r>    2.3270    1.0000 </r>
       <r>    2.7944    1.0000 </r>
       <r>    2.7944    1.0000 </r>
       <r>    2.7944    1.0000 </r>
       <r>    3.5530    1.0000 </r>
       <r>    3.5530    1.0000 </r>
       <r>    3.5530    1.0000 </r>
       <r>    6.9711    0.0000 </r>
       <r>    6.9711    0.0000 </r>
       <r>    6.9711    0.0000 </r>
       <r>    8.4411    0.0000 </r>
       <r>    8.4411    0.0000 </r>
       <r>    9.6916    0.0000 </r>
       <r>   11.2220    0.0000 </r>
       <r>   11.2220    0.0000 </r>
       <r>   12.2755    0.0000 </r>
       <r>   12.2755    0.0000 </r>
       <r>   12.2755    0.0000 </r>
       <r>   19.1521    0.0000 </r>
       <r>   19.1521    0.0000 </r>
       <r>   19.1521    0.0000 </r>
       <r>   19.3178    0.0000 </r>
       <r>   21.3900    0.0000 </r>
       <r>   22.8459    0.0000 </r>
       <r>   22.8459    0.0000 </r>
       <r>   22.8459    0.0000 </r>
       <r>   24.5925    0.0000 </r>
       <r>   24.5925    0.0000 </r>
       <r>   27.1669    0.0000 </r>
       <r>   27.1669    0.0000 </r>
       <r>   27.1669    0.0000 </r>
       <r>   28.4947    0.0000 </r>
       <r>   28.4947    0.0000 </r>
       <r>   28.4947    0.0000 </r>
       <r>   32.1214    0.0000 </r>
       <r>   32.1214    0.0000 </r>
       <r>   32.1220    0.0000 </r>
       <r>   32.1220    0.0000 </r>
       <r>   32.1220    0.0000 </r>
       <r>   32.4709    0.0000 </r>
       <r>   32.4709    0.0000 </r>
       <r>   32.4709    0.0000 </r>
       <r>   33.1747    0.0000 </r>
       <r>   34.0824    0.0000 </r>
       <r>   34.0824    0.0000 </r>
       <r>   34.0824    0.0000 </r>
       <r>   37.1490    0.0000 </r>
       <r>   37.1490    0.0000 </r>
       <r>   37.1490    0.0000 </r>
       <r>   37.7553    0.0000 </r>
       <r>   38.5008    0.0000 </r>
       <r>   38.6813    0.0000 </r>
       <r>   39.8791    0.0000 </r>
       <r>   39.8791    0.0000 </r>
       <r>   39.8791    0.0000 </r>
       <r>   40.5795    0.0000 </r>
       <r>   40.5795    0.0000 </r>
       <r>   42.1114    0.0000 </r>
       <r>   42.1114    0.0000 </r>
       <r>   42.1114    0.0000 </r>
       <r>   43.3234    0.0000 </r>
       <r>   43.3234    0.0000 </r>
       <r>   43.3234    0.0000 </r>
       <r>   45.3541    0.0000 </r>
       <r>   45.3541    0.0000 </r>
       <r>   45.3541    0.0000 </r>
       <r>   46.6778    0.0000 </r>
       <r>   46.6778    0.0000 </r>
       <r>   46.6778    0.0000 </r>
       <r>   48.8347    0.0000 </r>
       <r>   48.8347    0.0000 </r>
       <r>   49.4818    0.0000 </r>
       <r>   49.4818    0.0000 </r>
       <r>   50.4470    0.0000 </r>
       <r>   50.4470    0.0000 </r>
       <r>   50.4470    0.0000 </r>
       <r>   52.9310    0.0000 </r>
       <r>   52.9310    0.0000 </r>
       <r>   52.9310    0.0000 </r>
       <r>   54.0829    0.0000 </r>
       <r>   54.0829    0.0000 </r>
       <r>   54.0829    0.0000 </r>
       <r>   56.3928    0.0000 </r>
       <r>   59.0878    0.0000 </r>
       <r>   59.0886    0.0000 </r>
       <r>   59.0901    0.0000 </r>
       <r>   59.4231    0.0000 </r>
       <r>   59.4262    0.0000 </r>
       <r>   59.4417    0.0000 </r>
       <r>   59.4673    0.0000 </r>
       <r>   59.5001    0.0000 </r>
      </set>
      <set comment="kpoint 2">
       <r>  -43.2441    1.0000 </r>
       <r>  -21.6823    1.0000 </r>
       <r>  -21.4030    1.0000 </r>
       <r>  -21.4030    1.0000 </r>
       <r>  -21.3516    1.0000 </r>
       <r>  -12.6427    1.0000 </r>
       <r>  -12.2975    1.0000 </r>
       <r>  -11.8875    1.0000 </r>
       <r>   -6.6329    1.0000 </r>
       <r>   -6.6329    1.0000 </r>
       <r>   -6.5668    1.0000 </r>
       <r>    1.3307    1.0000 </r>
       <r>    2.1316    1.0000 </r>
       <r>    2.1316    1.0000 </r>
       <r>    2.3459    1.0000 </r>
       <r>    2.3459    1.0000 </r>
       <r>    2.4183    1.0000 </r>
       <r>    2.5011    1.0000 </r>
       <r>    3.4075    1.0000 </r>
       <r>    3.4075    1.0000 </r>
       <r>    7.1724    0.0000 </r>
       <r>    8.1728    0.0000 </r>
       <r>    8.1728    0.0000 </r>
       <r>    9.3046    0.0000 </r>
       <r>    9.3702    0.0000 </r>
       <r>   10.8895    0.0000 </r>
       <r>   11.2224    0.0000 </r>
       <r>   11.6784    0.0000 </r>
       <r>   12.4406    0.0000 </r>
       <r>   12.4406    0.0000 </r>
       <r>   12.7889    0.0000 </r>
       <r>   17.4583    0.0000 </r>
       <r>   19.6509    0.0000 </r>
       <r>   19.6509    0.0000 </r>
       <r>   19.8962    0.0000 </r>
       <r>   21.5138    0.0000 </r>
       <r>   21.9595    0.0000 </r>
       <r>   22.2936    0.0000 </r>
       <r>   23.1022    0.0000 </r>
       <r>   23.1022    0.0000 </r>
       <r>   24.6186    0.0000 </r>
       <r>   24.6186    0.0000 </r>
       <r>   24.6328    0.0000 </r>
       <r>   27.3214    0.0000 </r>
       <r>   27.4418    0.0000 </r>
       <r>   27.4418    0.0000 </r>
       <r>   29.4924    0.0000 </r>
       <r>   29.9841    0.0000 </r>
       <r>   30.2876    0.0000 </r>
       <r>   30.2876    0.0000 </r>
       <r>   32.2128    0.0000 </r>
       <r>   32.2828    0.0000 </r>
       <r>   32.9496    0.0000 </r>
       <r>   34.1346    0.0000 </r>
       <r>   34.1346    0.0000 </r>
       <r>   35.8437    0.0000 </r>
       <r>   35.8437    0.0000 </r>
       <r>   36.0933    0.0000 </r>
       <r>   36.5286    0.0000 </r>
       <r>   36.7567    0.0000 </r>
       <r>   37.3540    0.0000 </r>
       <r>   37.4523    0.0000 </r>
       <r>   37.5648    0.0000 </r>
       <r>   37.5648    0.0000 </r>
       <r>   38.1356    0.0000 </r>
       <r>   38.2398    0.0000 </r>
       <r>   40.4283    0.0000 </r>
       <r>   41.0765    0.0000 </r>
       <r>   41.0765    0.0000 </r>
       <r>   41.6357    0.0000 </r>
       <r>   41.9535    0.0000 </r>
       <r>   41.9535    0.0000 </r>
       <r>   42.0531    0.0000 </r>
       <r>   42.0531    0.0000 </r>
       <r>   43.3448    0.0000 </r>
       <r>   43.4086    0.0000 </r>
       <r>   43.4301    0.0000 </r>
       <r>   46.6187    0.0000 </r>
       <r>   46.6187    0.0000 </r>
       <r>   47.6780    0.0000 </r>
       <r>   48.3134    0.0000 </r>
       <r>   48.3466    0.0000 </r>
       <r>   49.9566    0.0000 </r>
       <r>   49.9566    0.0000 </r>
       <r>   50.5620    0.0000 </r>
       <r>   50.5620    0.0000 </r>
       <r>   50.9876    0.0000 </r>
       <r>   50.9876    0.0000 </r>
       <r>   51.0366    0.0000 </r>
       <r>   51.0630    0.0000 </r>
       <r>   52.1099    0.0000 </r>
       <r>   52.4589    0.0000 </r>
       <r>   53.6034    0.0000 </r>
       <r>   53.6034    0.0000 </r>
       <r>   54.6024    0.0000 </r>
       <r>   55.4227    0.0000 </r>
       <r>   55.7852    0.0000 </r>
       <r>   55.7852    0.0000 </r>
       <r>   56.1591    0.0000 </r>
       <r>   56.6239    0.0000 </r>
       <r>   58.2235    0.0000 </r>
       <r>   58.9913    0.0000 </r>
       <r>   61.0616    0.0000 </r>
       <r>   61.9290    0.0000 </r>
      </set>
      <set comment="kpoint 3">
       <r>  -43.2424    1.0000 </r>
       <r>  -21.8061    1.0000 </r>
       <r>  -21.3995    1.0000 </r>
       <r>  -21.3995    1.0000 </r>
       <r>  -21.3162    1.0000 </r>
       <r>  -12.7606    1.0000 </r>
       <r>  -12.2835    1.0000 </r>
       <r>  -11.3558    1.0000 </r>
       <r>   -6.5979    1.0000 </r>
       <r>   -6.5979    1.0000 </r>
       <r>   -6.4679    1.0000 </r>
       <r>    0.1298    1.0000 </r>
       <r>    1.8739    1.0000 </r>
       <r>    1.8739    1.0000 </r>
       <r>    1.9877    1.0000 </r>
       <r>    2.0492    1.0000 </r>
       <r>    2.0492    1.0000 </r>
       <r>    2.1054    1.0000 </r>
       <r>    3.3231    1.0000 </r>
       <r>    3.3231    1.0000 </r>
       <r>    7.4155    0.0000 </r>
       <r>    9.4887    0.0000 </r>
       <r>    9.4887    0.0000 </r>
       <r>   10.2220    0.0000 </r>
       <r>   10.4686    0.0000 </r>
       <r>   11.0919    0.0000 </r>
       <r>   11.2039    0.0000 </r>
       <r>   12.3072    0.0000 </r>
       <r>   12.3072    0.0000 </r>
       <r>   12.6247    0.0000 </r>
       <r>   15.0039    0.0000 </r>
       <r>   15.1736    0.0000 </r>
       <r>   16.8749    0.0000 </r>
       <r>   20.2697    0.0000 </r>
       <r>   21.3792    0.0000 </r>
       <r>   21.3792    0.0000 </r>
       <r>   21.5757    0.0000 </r>
       <r>   21.5757    0.0000 </r>
       <r>   23.2343    0.0000 </r>
       <r>   23.7072    0.0000 </r>
       <r>   23.7072    0.0000 </r>
       <r>   24.6165    0.0000 </r>
       <r>   25.1789    0.0000 </r>
       <r>   25.7633    0.0000 </r>
       <r>   25.8524    0.0000 </r>
       <r>   25.8524    0.0000 </r>
       <r>   27.2899    0.0000 </r>
       <r>   29.4225    0.0000 </r>
       <r>   29.4225    0.0000 </r>
       <r>   30.5467    0.0000 </r>
       <r>   33.2810    0.0000 </r>
       <r>   33.5721    0.0000 </r>
       <r>   33.8908    0.0000 </r>
       <r>   33.9745    0.0000 </r>
       <r>   34.8503    0.0000 </r>
       <r>   35.1540    0.0000 </r>
       <r>   35.6333    0.0000 </r>
       <r>   35.6333    0.0000 </r>
       <r>   36.0691    0.0000 </r>
       <r>   36.4619    0.0000 </r>
       <r>   36.4619    0.0000 </r>
       <r>   37.2088    0.0000 </r>
       <r>   37.2088    0.0000 </r>
       <r>   37.8535    0.0000 </r>
       <r>   38.2060    0.0000 </r>
       <r>   41.0990    0.0000 </r>
       <r>   41.0990    0.0000 </r>
       <r>   41.9086    0.0000 </r>
       <r>   42.0285    0.0000 </r>
       <r>   42.7154    0.0000 </r>
       <r>   42.7154    0.0000 </r>
       <r>   42.7960    0.0000 </r>
       <r>   44.3640    0.0000 </r>
       <r>   44.3640    0.0000 </r>
       <r>   44.5563    0.0000 </r>
       <r>   44.6418    0.0000 </r>
       <r>   45.8901    0.0000 </r>
       <r>   46.1428    0.0000 </r>
       <r>   46.1428    0.0000 </r>
       <r>   46.1882    0.0000 </r>
       <r>   46.8098    0.0000 </r>
       <r>   47.0882    0.0000 </r>
       <r>   47.1350    0.0000 </r>
       <r>   47.1350    0.0000 </r>
       <r>   48.7975    0.0000 </r>
       <r>   48.8616    0.0000 </r>
       <r>   51.8734    0.0000 </r>
       <r>   51.8734    0.0000 </r>
       <r>   52.6334    0.0000 </r>
       <r>   53.1562    0.0000 </r>
       <r>   53.1562    0.0000 </r>
       <r>   54.2362    0.0000 </r>
       <r>   55.5509    0.0000 </r>
       <r>   55.5509    0.0000 </r>
       <r>   55.9090    0.0000 </r>
       <r>   56.1701    0.0000 </r>
       <r>   57.3041    0.0000 </r>
       <r>   57.3549    0.0000 </r>
       <r>   57.3549    0.0000 </r>
       <r>   57.4903    0.0000 </r>
       <r>   57.5009    0.0000 </r>
       <r>   57.9613    0.0000 </r>
       <r>   57.9768    0.0000 </r>
       <r>   57.9768    0.0000 </r>
      </set>
      <set comment="kpoint 4">
       <r>  -43.2424    1.0000 </r>
       <r>  -21.6711    1.0000 </r>
       <r>  -21.5307    1.0000 </r>
       <r>  -21.3997    1.0000 </r>
       <r>  -21.3366    1.0000 </r>
       <r>  -12.5300    1.0000 </r>
       <r>  -11.9593    1.0000 </r>
       <r>  -11.9095    1.0000 </r>
       <r>   -6.7150    1.0000 </r>
       <r>   -6.5867    1.0000 </r>
       <r>   -6.5290    1.0000 </r>
       <r>    1.0557    1.0000 </r>
       <r>    1.3041    1.0000 </r>
       <r>    1.4031    1.0000 </r>
       <r>    1.9209    1.0000 </r>
       <r>    1.9613    1.0000 </r>
       <r>    2.3784    1.0000 </r>
       <r>    2.7977    1.0000 </r>
       <r>    3.2054    1.0000 </r>
       <r>    3.2528    1.0000 </r>
       <r>    8.2812    0.0000 </r>
       <r>    8.3222    0.0000 </r>
       <r>    8.6054    0.0000 </r>
       <r>   10.1794    0.0000 </r>
       <r>   10.3207    0.0000 </r>
       <r>   11.0571    0.0000 </r>
       <r>   11.8093    0.0000 </r>
       <r>   12.1098    0.0000 </r>
       <r>   12.6130    0.0000 </r>
       <r>   12.7492    0.0000 </r>
       <r>   13.5858    0.0000 </r>
       <r>   17.8863    0.0000 </r>
       <r>   18.1069    0.0000 </r>
       <r>   18.7607    0.0000 </r>
       <r>   19.8699    0.0000 </r>
       <r>   20.0538    0.0000 </r>
       <r>   22.0957    0.0000 </r>
       <r>   22.3349    0.0000 </r>
       <r>   22.3618    0.0000 </r>
       <r>   23.0331    0.0000 </r>
       <r>   23.4156    0.0000 </r>
       <r>   24.0477    0.0000 </r>
       <r>   25.1072    0.0000 </r>
       <r>   26.0577    0.0000 </r>
       <r>   27.7826    0.0000 </r>
       <r>   27.9152    0.0000 </r>
       <r>   29.3135    0.0000 </r>
       <r>   29.3359    0.0000 </r>
       <r>   29.4707    0.0000 </r>
       <r>   31.2937    0.0000 </r>
       <r>   32.4305    0.0000 </r>
       <r>   32.7273    0.0000 </r>
       <r>   33.1142    0.0000 </r>
       <r>   33.4809    0.0000 </r>
       <r>   34.5166    0.0000 </r>
       <r>   35.0595    0.0000 </r>
       <r>   35.5016    0.0000 </r>
       <r>   35.7528    0.0000 </r>
       <r>   36.1297    0.0000 </r>
       <r>   36.6304    0.0000 </r>
       <r>   36.8689    0.0000 </r>
       <r>   37.0793    0.0000 </r>
       <r>   37.3400    0.0000 </r>
       <r>   38.1278    0.0000 </r>
       <r>   38.8455    0.0000 </r>
       <r>   38.8936    0.0000 </r>
       <r>   39.7492    0.0000 </r>
       <r>   40.0866    0.0000 </r>
       <r>   42.1722    0.0000 </r>
       <r>   42.4410    0.0000 </r>
       <r>   42.4947    0.0000 </r>
       <r>   43.0923    0.0000 </r>
       <r>   43.2964    0.0000 </r>
       <r>   44.1156    0.0000 </r>
       <r>   44.7729    0.0000 </r>
       <r>   44.9087    0.0000 </r>
       <r>   45.4862    0.0000 </r>
       <r>   45.8831    0.0000 </r>
       <r>   46.0685    0.0000 </r>
       <r>   47.1396    0.0000 </r>
       <r>   47.4126    0.0000 </r>
       <r>   48.0259    0.0000 </r>
       <r>   48.6856    0.0000 </r>
       <r>   49.0183    0.0000 </r>
       <r>   49.3190    0.0000 </r>
       <r>   50.2855    0.0000 </r>
       <r>   50.4691    0.0000 </r>
       <r>   51.0001    0.0000 </r>
       <r>   51.6386    0.0000 </r>
       <r>   51.6998    0.0000 </r>
       <r>   52.3923    0.0000 </r>
       <r>   53.0306    0.0000 </r>
       <r>   54.4078    0.0000 </r>
       <r>   55.6973    0.0000 </r>
       <r>   55.8839    0.0000 </r>
       <r>   56.7490    0.0000 </r>
       <r>   57.0569    0.0000 </r>
       <r>   57.4925    0.0000 </r>
       <r>   57.5432    0.0000 </r>
       <r>   58.3708    0.0000 </r>
       <r>   58.8942    0.0000 </r>
       <r>   59.0564    0.0000 </r>
       <r>   59.6227    0.0000 </r>
       <r>   60.0287    0.0000 </r>
      </set>
      <set comment="kpoint 5">
       <r>  -43.2407    1.0000 </r>
       <r>  -21.7414    1.0000 </r>
       <r>  -21.5277    1.0000 </r>
       <r>  -21.3963    1.0000 </r>
       <r>  -21.3638    1.0000 </r>
       <r>  -12.5370    1.0000 </r>
       <r>  -11.9652    1.0000 </r>
       <r>  -11.4207    1.0000 </r>
       <r>   -6.6765    1.0000 </r>
       <r>   -6.6101    1.0000 </r>
       <r>   -6.5393    1.0000 </r>
       <r>    0.0986    1.0000 </r>
       <r>    0.6106    1.0000 </r>
       <r>    1.2715    1.0000 </r>
       <r>    1.6291    1.0000 </r>
       <r>    1.7018    1.0000 </r>
       <r>    2.4673    1.0000 </r>
       <r>    2.6683    1.0000 </r>
       <r>    3.1053    1.0000 </r>
       <r>    3.3195    1.0000 </r>
       <r>    8.4526    0.0000 </r>
       <r>    9.4632    0.0000 </r>
       <r>    9.6611    0.0000 </r>
       <r>   10.9203    0.0000 </r>
       <r>   10.9562    0.0000 </r>
       <r>   11.4937    0.0000 </r>
       <r>   11.9870    0.0000 </r>
       <r>   12.2750    0.0000 </r>
       <r>   12.5146    0.0000 </r>
       <r>   14.0709    0.0000 </r>
       <r>   15.0265    0.0000 </r>
       <r>   15.4473    0.0000 </r>
       <r>   16.9764    0.0000 </r>
       <r>   18.8042    0.0000 </r>
       <r>   19.2040    0.0000 </r>
       <r>   20.0571    0.0000 </r>
       <r>   20.3789    0.0000 </r>
       <r>   20.5378    0.0000 </r>
       <r>   21.8737    0.0000 </r>
       <r>   24.2026    0.0000 </r>
       <r>   24.7221    0.0000 </r>
       <r>   25.0925    0.0000 </r>
       <r>   25.3914    0.0000 </r>
       <r>   26.5035    0.0000 </r>
       <r>   26.8655    0.0000 </r>
       <r>   27.1917    0.0000 </r>
       <r>   27.9801    0.0000 </r>
       <r>   29.2731    0.0000 </r>
       <r>   29.5390    0.0000 </r>
       <r>   30.3580    0.0000 </r>
       <r>   31.4904    0.0000 </r>
       <r>   31.5534    0.0000 </r>
       <r>   32.8700    0.0000 </r>
       <r>   33.7126    0.0000 </r>
       <r>   34.1896    0.0000 </r>
       <r>   35.2588    0.0000 </r>
       <r>   35.7798    0.0000 </r>
       <r>   35.9826    0.0000 </r>
       <r>   36.1254    0.0000 </r>
       <r>   36.6413    0.0000 </r>
       <r>   36.8756    0.0000 </r>
       <r>   37.2935    0.0000 </r>
       <r>   38.3657    0.0000 </r>
       <r>   38.6472    0.0000 </r>
       <r>   38.7552    0.0000 </r>
       <r>   39.0432    0.0000 </r>
       <r>   39.2337    0.0000 </r>
       <r>   40.2370    0.0000 </r>
       <r>   41.4639    0.0000 </r>
       <r>   42.5844    0.0000 </r>
       <r>   43.0327    0.0000 </r>
       <r>   43.6585    0.0000 </r>
       <r>   43.9540    0.0000 </r>
       <r>   44.9841    0.0000 </r>
       <r>   46.0216    0.0000 </r>
       <r>   46.1445    0.0000 </r>
       <r>   46.5173    0.0000 </r>
       <r>   46.7826    0.0000 </r>
       <r>   46.7889    0.0000 </r>
       <r>   47.9781    0.0000 </r>
       <r>   48.1575    0.0000 </r>
       <r>   48.4758    0.0000 </r>
       <r>   48.8055    0.0000 </r>
       <r>   49.5114    0.0000 </r>
       <r>   49.6492    0.0000 </r>
       <r>   50.8337    0.0000 </r>
       <r>   51.2737    0.0000 </r>
       <r>   51.4249    0.0000 </r>
       <r>   52.1354    0.0000 </r>
       <r>   52.5848    0.0000 </r>
       <r>   52.8709    0.0000 </r>
       <r>   53.2914    0.0000 </r>
       <r>   53.5016    0.0000 </r>
       <r>   53.9509    0.0000 </r>
       <r>   54.8989    0.0000 </r>
       <r>   55.0517    0.0000 </r>
       <r>   55.2329    0.0000 </r>
       <r>   56.1754    0.0000 </r>
       <r>   56.9457    0.0000 </r>
       <r>   58.3731    0.0000 </r>
       <r>   58.8805    0.0000 </r>
       <r>   59.2518    0.0000 </r>
       <r>   59.3871    0.0000 </r>
       <r>   59.7267    0.0000 </r>
      </set>
      <set comment="kpoint 6">
       <r>  -43.2391    1.0000 </r>
       <r>  -21.6491    1.0000 </r>
       <r>  -21.6491    1.0000 </r>
       <r>  -21.4390    1.0000 </r>
       <r>  -21.3931    1.0000 </r>
       <r>  -12.4338    1.0000 </r>
       <r>  -11.4884    1.0000 </r>
       <r>  -11.4884    1.0000 </r>
       <r>   -6.7436    1.0000 </r>
       <r>   -6.7436    1.0000 </r>
       <r>   -6.4786    1.0000 </r>
       <r>    0.0210    1.0000 </r>
       <r>    0.0313    1.0000 </r>
       <r>    0.1275    1.0000 </r>
       <r>    1.3804    1.0000 </r>
       <r>    1.3804    1.0000 </r>
       <r>    2.8490    1.0000 </r>
       <r>    2.8490    1.0000 </r>
       <r>    2.9915    1.0000 </r>
       <r>    3.6999    1.0000 </r>
       <r>    9.4587    0.0000 </r>
       <r>    9.4587    0.0000 </r>
       <r>   10.2376    0.0000 </r>
       <r>   10.2815    0.0000 </r>
       <r>   11.4753    0.0000 </r>
       <r>   12.5685    0.0000 </r>
       <r>   12.9790    0.0000 </r>
       <r>   12.9790    0.0000 </r>
       <r>   13.4390    0.0000 </r>
       <r>   15.3561    0.0000 </r>
       <r>   15.3561    0.0000 </r>
       <r>   15.8664    0.0000 </r>
       <r>   16.2709    0.0000 </r>
       <r>   16.8984    0.0000 </r>
       <r>   16.9865    0.0000 </r>
       <r>   16.9865    0.0000 </r>
       <r>   19.2193    0.0000 </r>
       <r>   20.7138    0.0000 </r>
       <r>   23.5636    0.0000 </r>
       <r>   24.5536    0.0000 </r>
       <r>   25.0030    0.0000 </r>
       <r>   25.0030    0.0000 </r>
       <r>   25.2259    0.0000 </r>
       <r>   27.2966    0.0000 </r>
       <r>   27.2966    0.0000 </r>
       <r>   27.6991    0.0000 </r>
       <r>   28.0709    0.0000 </r>
       <r>   29.8702    0.0000 </r>
       <r>   30.1186    0.0000 </r>
       <r>   30.1186    0.0000 </r>
       <r>   30.5462    0.0000 </r>
       <r>   30.5462    0.0000 </r>
       <r>   32.9180    0.0000 </r>
       <r>   32.9180    0.0000 </r>
       <r>   34.4336    0.0000 </r>
       <r>   34.4805    0.0000 </r>
       <r>   35.1580    0.0000 </r>
       <r>   35.2258    0.0000 </r>
       <r>   35.5632    0.0000 </r>
       <r>   35.5632    0.0000 </r>
       <r>   36.3390    0.0000 </r>
       <r>   37.0034    0.0000 </r>
       <r>   37.3673    0.0000 </r>
       <r>   37.3673    0.0000 </r>
       <r>   37.6834    0.0000 </r>
       <r>   38.4883    0.0000 </r>
       <r>   38.4883    0.0000 </r>
       <r>   43.7508    0.0000 </r>
       <r>   44.1810    0.0000 </r>
       <r>   44.1810    0.0000 </r>
       <r>   45.0274    0.0000 </r>
       <r>   45.1372    0.0000 </r>
       <r>   45.1372    0.0000 </r>
       <r>   45.1725    0.0000 </r>
       <r>   46.3215    0.0000 </r>
       <r>   46.8129    0.0000 </r>
       <r>   46.8645    0.0000 </r>
       <r>   47.0678    0.0000 </r>
       <r>   47.0678    0.0000 </r>
       <r>   47.2848    0.0000 </r>
       <r>   47.5083    0.0000 </r>
       <r>   48.8563    0.0000 </r>
       <r>   48.8563    0.0000 </r>
       <r>   49.8288    0.0000 </r>
       <r>   50.8219    0.0000 </r>
       <r>   50.8219    0.0000 </r>
       <r>   51.0960    0.0000 </r>
       <r>   51.4922    0.0000 </r>
       <r>   53.4569    0.0000 </r>
       <r>   53.5198    0.0000 </r>
       <r>   53.5824    0.0000 </r>
       <r>   53.5824    0.0000 </r>
       <r>   53.8039    0.0000 </r>
       <r>   54.5282    0.0000 </r>
       <r>   54.6173    0.0000 </r>
       <r>   56.4650    0.0000 </r>
       <r>   57.2870    0.0000 </r>
       <r>   57.6353    0.0000 </r>
       <r>   57.6353    0.0000 </r>
       <r>   57.9390    0.0000 </r>
       <r>   57.9390    0.0000 </r>
       <r>   58.6407    0.0000 </r>
       <r>   58.9020    0.0000 </r>
       <r>   58.9206    0.0000 </r>
      </set>
      <set comment="kpoint 7">
       <r>  -43.2408    1.0000 </r>
       <r>  -21.6407    1.0000 </r>
       <r>  -21.5266    1.0000 </r>
       <r>  -21.5266    1.0000 </r>
       <r>  -21.3451    1.0000 </r>
       <r>  -12.1522    1.0000 </r>
       <r>  -11.8790    1.0000 </r>
       <r>  -11.8790    1.0000 </r>
       <r>   -6.8005    1.0000 </r>
       <r>   -6.8005    1.0000 </r>
       <r>   -6.4616    1.0000 </r>
       <r>    0.7831    1.0000 </r>
       <r>    1.2940    1.0000 </r>
       <r>    1.2940    1.0000 </r>
       <r>    1.5286    1.0000 </r>
       <r>    1.5286    1.0000 </r>
       <r>    1.7340    1.0000 </r>
       <r>    3.0633    1.0000 </r>
       <r>    3.0633    1.0000 </r>
       <r>    3.2592    1.0000 </r>
       <r>    8.7638    0.0000 </r>
       <r>    8.7638    0.0000 </r>
       <r>    9.0727    0.0000 </r>
       <r>   10.8077    0.0000 </r>
       <r>   10.8077    0.0000 </r>
       <r>   10.8331    0.0000 </r>
       <r>   12.1550    0.0000 </r>
       <r>   12.1550    0.0000 </r>
       <r>   13.6035    0.0000 </r>
       <r>   13.6181    0.0000 </r>
       <r>   13.6181    0.0000 </r>
       <r>   17.4359    0.0000 </r>
       <r>   18.8224    0.0000 </r>
       <r>   18.8224    0.0000 </r>
       <r>   19.3896    0.0000 </r>
       <r>   20.0338    0.0000 </r>
       <r>   20.0338    0.0000 </r>
       <r>   20.9576    0.0000 </r>
       <r>   21.9563    0.0000 </r>
       <r>   23.1997    0.0000 </r>
       <r>   23.1997    0.0000 </r>
       <r>   24.5589    0.0000 </r>
       <r>   24.5589    0.0000 </r>
       <r>   24.9764    0.0000 </r>
       <r>   27.8173    0.0000 </r>
       <r>   28.5925    0.0000 </r>
       <r>   28.5925    0.0000 </r>
       <r>   29.5463    0.0000 </r>
       <r>   31.0173    0.0000 </r>
       <r>   31.0173    0.0000 </r>
       <r>   31.8622    0.0000 </r>
       <r>   32.0298    0.0000 </r>
       <r>   32.0298    0.0000 </r>
       <r>   33.4328    0.0000 </r>
       <r>   33.9281    0.0000 </r>
       <r>   33.9281    0.0000 </r>
       <r>   35.3455    0.0000 </r>
       <r>   36.2317    0.0000 </r>
       <r>   36.2317    0.0000 </r>
       <r>   36.2791    0.0000 </r>
       <r>   36.8417    0.0000 </r>
       <r>   36.8417    0.0000 </r>
       <r>   38.4196    0.0000 </r>
       <r>   38.9661    0.0000 </r>
       <r>   38.9661    0.0000 </r>
       <r>   40.0622    0.0000 </r>
       <r>   40.7603    0.0000 </r>
       <r>   40.7603    0.0000 </r>
       <r>   42.2197    0.0000 </r>
       <r>   42.2573    0.0000 </r>
       <r>   42.8259    0.0000 </r>
       <r>   42.8259    0.0000 </r>
       <r>   43.9934    0.0000 </r>
       <r>   44.1936    0.0000 </r>
       <r>   44.1936    0.0000 </r>
       <r>   44.8039    0.0000 </r>
       <r>   45.8281    0.0000 </r>
       <r>   45.9509    0.0000 </r>
       <r>   45.9509    0.0000 </r>
       <r>   46.7656    0.0000 </r>
       <r>   46.7656    0.0000 </r>
       <r>   47.3392    0.0000 </r>
       <r>   49.1327    0.0000 </r>
       <r>   49.1327    0.0000 </r>
       <r>   50.3240    0.0000 </r>
       <r>   50.3240    0.0000 </r>
       <r>   52.1331    0.0000 </r>
       <r>   52.1331    0.0000 </r>
       <r>   53.3436    0.0000 </r>
       <r>   53.7633    0.0000 </r>
       <r>   53.7633    0.0000 </r>
       <r>   54.1903    0.0000 </r>
       <r>   54.5325    0.0000 </r>
       <r>   55.5982    0.0000 </r>
       <r>   55.8355    0.0000 </r>
       <r>   55.8355    0.0000 </r>
       <r>   56.0976    0.0000 </r>
       <r>   57.7155    0.0000 </r>
       <r>   57.7155    0.0000 </r>
       <r>   58.3823    0.0000 </r>
       <r>   58.8626    0.0000 </r>
       <r>   58.8626    0.0000 </r>
       <r>   60.2593    0.0000 </r>
       <r>   60.6174    0.0000 </r>
      </set>
      <set comment="kpoint 8">
       <r>  -43.2391    1.0000 </r>
       <r>  -21.6978    1.0000 </r>
       <r>  -21.5249    1.0000 </r>
       <r>  -21.5224    1.0000 </r>
       <r>  -21.3875    1.0000 </r>
       <r>  -12.1061    1.0000 </r>
       <r>  -11.8473    1.0000 </r>
       <r>  -11.4255    1.0000 </r>
       <r>   -6.8872    1.0000 </r>
       <r>   -6.7847    1.0000 </r>
       <r>   -6.6233    1.0000 </r>
       <r>    0.0912    1.0000 </r>
       <r>    0.6906    1.0000 </r>
       <r>    1.2596    1.0000 </r>
       <r>    1.2831    1.0000 </r>
       <r>    1.3235    1.0000 </r>
       <r>    1.7871    1.0000 </r>
       <r>    2.9501    1.0000 </r>
       <r>    3.2188    1.0000 </r>
       <r>    3.3495    1.0000 </r>
       <r>    9.0624    0.0000 </r>
       <r>    9.6712    0.0000 </r>
       <r>    9.8636    0.0000 </r>
       <r>   11.0037    0.0000 </r>
       <r>   11.3420    0.0000 </r>
       <r>   11.3600    0.0000 </r>
       <r>   11.4144    0.0000 </r>
       <r>   12.5591    0.0000 </r>
       <r>   13.6474    0.0000 </r>
       <r>   14.8220    0.0000 </r>
       <r>   15.1991    0.0000 </r>
       <r>   15.9604    0.0000 </r>
       <r>   17.4290    0.0000 </r>
       <r>   17.7266    0.0000 </r>
       <r>   18.6530    0.0000 </r>
       <r>   19.7160    0.0000 </r>
       <r>   20.8070    0.0000 </r>
       <r>   21.5008    0.0000 </r>
       <r>   21.5971    0.0000 </r>
       <r>   22.2645    0.0000 </r>
       <r>   23.6028    0.0000 </r>
       <r>   24.8332    0.0000 </r>
       <r>   25.1959    0.0000 </r>
       <r>   25.5261    0.0000 </r>
       <r>   26.6046    0.0000 </r>
       <r>   27.0962    0.0000 </r>
       <r>   27.6905    0.0000 </r>
       <r>   29.3735    0.0000 </r>
       <r>   30.3400    0.0000 </r>
       <r>   31.2916    0.0000 </r>
       <r>   31.4498    0.0000 </r>
       <r>   32.8725    0.0000 </r>
       <r>   33.0934    0.0000 </r>
       <r>   33.4681    0.0000 </r>
       <r>   33.6559    0.0000 </r>
       <r>   34.4033    0.0000 </r>
       <r>   34.7083    0.0000 </r>
       <r>   34.8399    0.0000 </r>
       <r>   35.2339    0.0000 </r>
       <r>   36.3797    0.0000 </r>
       <r>   36.4700    0.0000 </r>
       <r>   37.7448    0.0000 </r>
       <r>   38.0627    0.0000 </r>
       <r>   38.6287    0.0000 </r>
       <r>   38.9861    0.0000 </r>
       <r>   39.7682    0.0000 </r>
       <r>   39.9740    0.0000 </r>
       <r>   41.1371    0.0000 </r>
       <r>   41.4102    0.0000 </r>
       <r>   41.5530    0.0000 </r>
       <r>   43.9984    0.0000 </r>
       <r>   44.0496    0.0000 </r>
       <r>   44.2674    0.0000 </r>
       <r>   45.4153    0.0000 </r>
       <r>   46.0280    0.0000 </r>
       <r>   46.3167    0.0000 </r>
       <r>   46.4040    0.0000 </r>
       <r>   46.5477    0.0000 </r>
       <r>   47.3584    0.0000 </r>
       <r>   47.6452    0.0000 </r>
       <r>   47.8445    0.0000 </r>
       <r>   49.4023    0.0000 </r>
       <r>   49.8696    0.0000 </r>
       <r>   49.8788    0.0000 </r>
       <r>   50.7698    0.0000 </r>
       <r>   51.1246    0.0000 </r>
       <r>   51.4519    0.0000 </r>
       <r>   51.7273    0.0000 </r>
       <r>   51.8260    0.0000 </r>
       <r>   52.3343    0.0000 </r>
       <r>   53.4619    0.0000 </r>
       <r>   54.3067    0.0000 </r>
       <r>   54.9203    0.0000 </r>
       <r>   54.9836    0.0000 </r>
       <r>   55.9291    0.0000 </r>
       <r>   56.5517    0.0000 </r>
       <r>   56.6581    0.0000 </r>
       <r>   57.7550    0.0000 </r>
       <r>   58.0430    0.0000 </r>
       <r>   58.6315    0.0000 </r>
       <r>   58.6967    0.0000 </r>
       <r>   59.5294    0.0000 </r>
       <r>   59.7425    0.0000 </r>
       <r>   59.8223    0.0000 </r>
      </set>
      <set comment="kpoint 9">
       <r>  -43.2374    1.0000 </r>
       <r>  -21.6442    1.0000 </r>
       <r>  -21.6442    1.0000 </r>
       <r>  -21.5198    1.0000 </r>
       <r>  -21.4211    1.0000 </r>
       <r>  -11.9275    1.0000 </r>
       <r>  -11.4336    1.0000 </r>
       <r>  -11.4336    1.0000 </r>
       <r>   -6.9516    1.0000 </r>
       <r>   -6.9516    1.0000 </r>
       <r>   -6.8391    1.0000 </r>
       <r>    0.0392    1.0000 </r>
       <r>    0.1614    1.0000 </r>
       <r>    0.6494    1.0000 </r>
       <r>    1.3127    1.0000 </r>
       <r>    1.3127    1.0000 </r>
       <r>    1.4538    1.0000 </r>
       <r>    3.2880    1.0000 </r>
       <r>    3.2880    1.0000 </r>
       <r>    3.7386    1.0000 </r>
       <r>    9.7858    0.0000 </r>
       <r>    9.7858    0.0000 </r>
       <r>   10.0666    0.0000 </r>
       <r>   10.5641    0.0000 </r>
       <r>   11.3901    0.0000 </r>
       <r>   11.3901    0.0000 </r>
       <r>   11.9060    0.0000 </r>
       <r>   13.1755    0.0000 </r>
       <r>   14.2777    0.0000 </r>
       <r>   15.1122    0.0000 </r>
       <r>   15.8859    0.0000 </r>
       <r>   16.5288    0.0000 </r>
       <r>   16.5288    0.0000 </r>
       <r>   17.4942    0.0000 </r>
       <r>   18.7230    0.0000 </r>
       <r>   18.7230    0.0000 </r>
       <r>   19.4360    0.0000 </r>
       <r>   20.9824    0.0000 </r>
       <r>   21.6131    0.0000 </r>
       <r>   23.1671    0.0000 </r>
       <r>   23.1671    0.0000 </r>
       <r>   24.3550    0.0000 </r>
       <r>   26.3232    0.0000 </r>
       <r>   26.4763    0.0000 </r>
       <r>   26.4763    0.0000 </r>
       <r>   27.5873    0.0000 </r>
       <r>   27.5873    0.0000 </r>
       <r>   27.8901    0.0000 </r>
       <r>   28.4224    0.0000 </r>
       <r>   31.9905    0.0000 </r>
       <r>   31.9905    0.0000 </r>
       <r>   32.4504    0.0000 </r>
       <r>   32.7281    0.0000 </r>
       <r>   33.2296    0.0000 </r>
       <r>   33.7700    0.0000 </r>
       <r>   33.7700    0.0000 </r>
       <r>   33.8326    0.0000 </r>
       <r>   33.8326    0.0000 </r>
       <r>   34.8982    0.0000 </r>
       <r>   35.2947    0.0000 </r>
       <r>   36.0179    0.0000 </r>
       <r>   38.3456    0.0000 </r>
       <r>   38.5935    0.0000 </r>
       <r>   38.5935    0.0000 </r>
       <r>   38.8107    0.0000 </r>
       <r>   39.5203    0.0000 </r>
       <r>   40.1242    0.0000 </r>
       <r>   40.1242    0.0000 </r>
       <r>   42.6470    0.0000 </r>
       <r>   42.9566    0.0000 </r>
       <r>   43.9495    0.0000 </r>
       <r>   43.9495    0.0000 </r>
       <r>   44.6823    0.0000 </r>
       <r>   46.7062    0.0000 </r>
       <r>   46.7062    0.0000 </r>
       <r>   46.7784    0.0000 </r>
       <r>   47.5811    0.0000 </r>
       <r>   47.6080    0.0000 </r>
       <r>   47.6080    0.0000 </r>
       <r>   49.4325    0.0000 </r>
       <r>   49.8466    0.0000 </r>
       <r>   49.8466    0.0000 </r>
       <r>   50.2424    0.0000 </r>
       <r>   50.3043    0.0000 </r>
       <r>   51.7796    0.0000 </r>
       <r>   51.7796    0.0000 </r>
       <r>   51.9892    0.0000 </r>
       <r>   52.0819    0.0000 </r>
       <r>   52.5812    0.0000 </r>
       <r>   52.5812    0.0000 </r>
       <r>   52.7220    0.0000 </r>
       <r>   53.5947    0.0000 </r>
       <r>   54.3128    0.0000 </r>
       <r>   55.1428    0.0000 </r>
       <r>   55.5053    0.0000 </r>
       <r>   55.5053    0.0000 </r>
       <r>   55.9510    0.0000 </r>
       <r>   57.2840    0.0000 </r>
       <r>   57.8349    0.0000 </r>
       <r>   57.8350    0.0000 </r>
       <r>   58.5762    0.0000 </r>
       <r>   58.8062    0.0000 </r>
       <r>   59.1671    0.0000 </r>
       <r>   59.3805    0.0000 </r>
      </set>
      <set comment="kpoint 10">
       <r>  -43.2358    1.0000 </r>
       <r>  -21.6395    1.0000 </r>
       <r>  -21.6395    1.0000 </r>
       <r>  -21.6395    1.0000 </r>
       <r>  -21.4030    1.0000 </r>
       <r>  -11.3750    1.0000 </r>
       <r>  -11.3750    1.0000 </r>
       <r>  -11.3750    1.0000 </r>
       <r>   -7.1541    1.0000 </r>
       <r>   -7.1541    1.0000 </r>
       <r>   -7.1541    1.0000 </r>
       <r>    0.0481    1.0000 </r>
       <r>    0.0481    1.0000 </r>
       <r>    0.3021    1.0000 </r>
       <r>    1.2422    1.0000 </r>
       <r>    1.2422    1.0000 </r>
       <r>    1.2422    1.0000 </r>
       <r>    3.7794    1.0000 </r>
       <r>    3.7794    1.0000 </r>
       <r>    3.7794    1.0000 </r>
       <r>    9.7665    0.0000 </r>
       <r>    9.7665    0.0000 </r>
       <r>    9.7665    0.0000 </r>
       <r>   10.7803    0.0000 </r>
       <r>   10.7803    0.0000 </r>
       <r>   10.7803    0.0000 </r>
       <r>   12.9283    0.0000 </r>
       <r>   12.9283    0.0000 </r>
       <r>   14.3944    0.0000 </r>
       <r>   15.9082    0.0000 </r>
       <r>   15.9082    0.0000 </r>
       <r>   17.4201    0.0000 </r>
       <r>   17.4201    0.0000 </r>
       <r>   17.4201    0.0000 </r>
       <r>   18.0425    0.0000 </r>
       <r>   20.7920    0.0000 </r>
       <r>   20.7920    0.0000 </r>
       <r>   20.7920    0.0000 </r>
       <r>   21.3308    0.0000 </r>
       <r>   21.3308    0.0000 </r>
       <r>   21.3308    0.0000 </r>
       <r>   24.7385    0.0000 </r>
       <r>   24.7385    0.0000 </r>
       <r>   24.7385    0.0000 </r>
       <r>   27.8423    0.0000 </r>
       <r>   27.8423    0.0000 </r>
       <r>   27.8423    0.0000 </r>
       <r>   30.1128    0.0000 </r>
       <r>   30.1128    0.0000 </r>
       <r>   30.1128    0.0000 </r>
       <r>   31.4921    0.0000 </r>
       <r>   31.6049    0.0000 </r>
       <r>   32.6062    0.0000 </r>
       <r>   32.6062    0.0000 </r>
       <r>   33.0356    0.0000 </r>
       <r>   33.0356    0.0000 </r>
       <r>   33.1506    0.0000 </r>
       <r>   33.1506    0.0000 </r>
       <r>   33.1506    0.0000 </r>
       <r>   34.2046    0.0000 </r>
       <r>   34.2046    0.0000 </r>
       <r>   34.2046    0.0000 </r>
       <r>   39.9718    0.0000 </r>
       <r>   39.9718    0.0000 </r>
       <r>   39.9718    0.0000 </r>
       <r>   44.1883    0.0000 </r>
       <r>   44.1883    0.0000 </r>
       <r>   44.1883    0.0000 </r>
       <r>   44.4712    0.0000 </r>
       <r>   44.6316    0.0000 </r>
       <r>   44.6316    0.0000 </r>
       <r>   44.6316    0.0000 </r>
       <r>   44.9475    0.0000 </r>
       <r>   44.9475    0.0000 </r>
       <r>   44.9475    0.0000 </r>
       <r>   46.4199    0.0000 </r>
       <r>   46.4199    0.0000 </r>
       <r>   48.5361    0.0000 </r>
       <r>   48.5361    0.0000 </r>
       <r>   48.5361    0.0000 </r>
       <r>   48.5553    0.0000 </r>
       <r>   49.3514    0.0000 </r>
       <r>   49.3514    0.0000 </r>
       <r>   49.3514    0.0000 </r>
       <r>   49.5653    0.0000 </r>
       <r>   50.3056    0.0000 </r>
       <r>   50.3056    0.0000 </r>
       <r>   50.3056    0.0000 </r>
       <r>   53.1740    0.0000 </r>
       <r>   53.1740    0.0000 </r>
       <r>   53.4752    0.0000 </r>
       <r>   53.4752    0.0000 </r>
       <r>   53.4752    0.0000 </r>
       <r>   58.0329    0.0000 </r>
       <r>   58.7311    0.0000 </r>
       <r>   58.7312    0.0000 </r>
       <r>   58.7312    0.0000 </r>
       <r>   59.1889    0.0000 </r>
       <r>   59.1890    0.0000 </r>
       <r>   59.1893    0.0000 </r>
       <r>   59.6149    0.0000 </r>
       <r>   59.6153    0.0000 </r>
       <r>   59.6177    0.0000 </r>
       <r>   60.5904    0.0000 </r>
      </set>
     </set>
    </set>
   </array>
  </eigenvalues>
  <separator name="orbital magnetization" >
   <v name="MAGDIPOLOUT">      0.00000000      0.00000000      0.00000000</v>
  </separator>
  <dos>
   <i name="efermi">      4.03905933 </i>
   <total>
    <array>
     <dimension dim="1">gridpoints</dimension>
     <dimension dim="2">spin</dimension>
     <field>energy</field>
     <field>total</field>
     <field>integrated</field>
     <set>
      <set comment="spin 1">
       <r>   -48.5045     0.0000     0.0000 </r>
       <r>   -48.1189     0.0000     0.0000 </r>
       <r>   -47.7332     0.0000     0.0000 </r>
       <r>   -47.3476     0.0000     0.0000 </r>
       <r>   -46.9619     0.0000     0.0000 </r>
       <r>   -46.5763     0.0000     0.0000 </r>
       <r>   -46.1907     0.0000     0.0000 </r>
       <r>   -45.8050     0.0000     0.0000 </r>
       <r>   -45.4194     0.0000     0.0000 </r>
       <r>   -45.0337     0.0000     0.0000 </r>
       <r>   -44.6481     0.0000     0.0000 </r>
       <r>   -44.2625     0.0000     0.0000 </r>
       <r>   -43.8768     0.0000     0.0000 </r>
       <r>   -43.4912     0.0000     0.0000 </r>
       <r>   -43.1055     5.1858     1.9999 </r>
       <r>   -42.7199     0.0000     2.0000 </r>
       <r>   -42.3343     0.0000     2.0000 </r>
       <r>   -41.9486     0.0000     2.0000 </r>
       <r>   -41.5630     0.0000     2.0000 </r>
       <r>   -41.1773     0.0000     2.0000 </r>
       <r>   -40.7917     0.0000     2.0000 </r>
       <r>   -40.4060     0.0000     2.0000 </r>
       <r>   -40.0204     0.0000     2.0000 </r>
       <r>   -39.6348     0.0000     2.0000 </r>
       <r>   -39.2491     0.0000     2.0000 </r>
       <r>   -38.8635     0.0000     2.0000 </r>
       <r>   -38.4778     0.0000     2.0000 </r>
       <r>   -38.0922     0.0000     2.0000 </r>
       <r>   -37.7066     0.0000     2.0000 </r>
       <r>   -37.3209     0.0000     2.0000 </r>
       <r>   -36.9353     0.0000     2.0000 </r>
       <r>   -36.5496     0.0000     2.0000 </r>
       <r>   -36.1640     0.0000     2.0000 </r>
       <r>   -35.7784     0.0000     2.0000 </r>
       <r>   -35.3927     0.0000     2.0000 </r>
       <r>   -35.0071     0.0000     2.0000 </r>
       <r>   -34.6214     0.0000     2.0000 </r>
       <r>   -34.2358     0.0000     2.0000 </r>
       <r>   -33.8502     0.0000     2.0000 </r>
       <r>   -33.4645     0.0000     2.0000 </r>
       <r>   -33.0789     0.0000     2.0000 </r>
       <r>   -32.6932     0.0000     2.0000 </r>
       <r>   -32.3076     0.0000     2.0000 </r>
       <r>   -31.9219     0.0000     2.0000 </r>
       <r>   -31.5363     0.0000     2.0000 </r>
       <r>   -31.1507     0.0000     2.0000 </r>
       <r>   -30.7650     0.0000     2.0000 </r>
       <r>   -30.3794     0.0000     2.0000 </r>
       <r>   -29.9937     0.0000     2.0000 </r>
       <r>   -29.6081     0.0000     2.0000 </r>
       <r>   -29.2225     0.0000     2.0000 </r>
       <r>   -28.8368     0.0000     2.0000 </r>
       <r>   -28.4512     0.0000     2.0000 </r>
       <r>   -28.0655     0.0000     2.0000 </r>
       <r>   -27.6799     0.0000     2.0000 </r>
       <r>   -27.2943     0.0000     2.0000 </r>
       <r>   -26.9086     0.0000     2.0000 </r>
       <r>   -26.5230     0.0000     2.0000 </r>
       <r>   -26.1373     0.0000     2.0000 </r>
       <r>   -25.7517     0.0000     2.0000 </r>
       <r>   -25.3661     0.0000     2.0000 </r>
       <r>   -24.9804     0.0000     2.0000 </r>
       <r>   -24.5948     0.0000     2.0000 </r>
       <r>   -24.2091     0.0000     2.0000 </r>
       <r>   -23.8235     0.0000     2.0000 </r>
       <r>   -23.4379     0.0000     2.0000 </r>
       <r>   -23.0522     0.0000     2.0000 </r>
       <r>   -22.6666     0.0000     2.0000 </r>
       <r>   -22.2809     0.0000     2.0000 </r>
       <r>   -21.8953     0.0014     2.0006 </r>
       <r>   -21.5096     9.9047     5.8202 </r>
       <r>   -21.1240     9.5196    10.0000 </r>
       <r>   -20.7384     0.0000    10.0000 </r>
       <r>   -20.3527     0.0000    10.0000 </r>
       <r>   -19.9671     0.0000    10.0000 </r>
       <r>   -19.5814     0.0000    10.0000 </r>
       <r>   -19.1958     0.0000    10.0000 </r>
       <r>   -18.8102     0.0000    10.0000 </r>
       <r>   -18.4245     0.0000    10.0000 </r>
       <r>   -18.0389     0.0000    10.0000 </r>
       <r>   -17.6532     0.0000    10.0000 </r>
       <r>   -17.2676     0.0000    10.0000 </r>
       <r>   -16.8820     0.0000    10.0000 </r>
       <r>   -16.4963     0.0000    10.0000 </r>
       <r>   -16.1107     0.0000    10.0000 </r>
       <r>   -15.7250     0.0000    10.0000 </r>
       <r>   -15.3394     0.0000    10.0000 </r>
       <r>   -14.9538     0.0000    10.0000 </r>
       <r>   -14.5681     0.0000    10.0000 </r>
       <r>   -14.1825     0.0000    10.0000 </r>
       <r>   -13.7968     0.0000    10.0000 </r>
       <r>   -13.4112     0.0000    10.0000 </r>
       <r>   -13.0255     0.0000    10.0000 </r>
       <r>   -12.6399     0.5103    10.1968 </r>
       <r>   -12.2543     3.2680    11.4571 </r>
       <r>   -11.8686     6.2763    13.9209 </r>
       <r>   -11.4830     1.6462    14.6697 </r>
       <r>   -11.0973     3.4495    16.0000 </r>
       <r>   -10.7117     0.0000    16.0000 </r>
       <r>   -10.3261     0.0000    16.0000 </r>
       <r>    -9.9404     0.0000    16.0000 </r>
       <r>    -9.5548     0.0000    16.0000 </r>
       <r>    -9.1691     0.0000    16.0000 </r>
       <r>    -8.7835     0.0000    16.0000 </r>
       <r>    -8.3979     0.0000    16.0000 </r>
       <r>    -8.0122     0.0000    16.0000 </r>
       <r>    -7.6266     0.0000    16.0000 </r>
       <r>    -7.2409     0.0017    16.0007 </r>
       <r>    -6.8553     2.2637    16.8736 </r>
       <r>    -6.4697    12.4346    21.7389 </r>
       <r>    -6.0840     0.6060    22.0000 </r>
       <r>    -5.6984     0.0000    22.0000 </r>
       <r>    -5.3127     0.0000    22.0000 </r>
       <r>    -4.9271     0.0000    22.0000 </r>
       <r>    -4.5414     0.0000    22.0000 </r>
       <r>    -4.1558     0.0000    22.0000 </r>
       <r>    -3.7702     0.0000    22.0000 </r>
       <r>    -3.3845     0.0000    22.0000 </r>
       <r>    -2.9989     0.0000    22.0000 </r>
       <r>    -2.6132     0.0000    22.0000 </r>
       <r>    -2.2276     0.0000    22.0000 </r>
       <r>    -1.8420     0.0000    22.0000 </r>
       <r>    -1.4563     0.0000    22.0000 </r>
       <r>    -1.0707     0.0000    22.0000 </r>
       <r>    -0.6850     0.0000    22.0000 </r>
       <r>    -0.2994     0.0000    22.0000 </r>
       <r>     0.0862     1.8938    22.7303 </r>
       <r>     0.4719     2.1492    23.5938 </r>
       <r>     0.8575     3.0678    24.7768 </r>
       <r>     1.2432     1.9175    25.5207 </r>
       <r>     1.6288    10.6559    29.6301 </r>
       <r>     2.0144     5.6949    31.8274 </r>
       <r>     2.4001     3.6566    33.2851 </r>
       <r>     2.7857     3.2133    34.6509 </r>
       <r>     3.1714     4.9478    36.5592 </r>
       <r>     3.5570     7.8080    39.5824 </r>
       <r>     3.9426     1.0829    40.0000 </r>
       <r>     4.3283     0.0000    40.0000 </r>
       <r>     4.7139     0.0000    40.0000 </r>
       <r>     5.0996     0.0000    40.0000 </r>
       <r>     5.4852     0.0000    40.0000 </r>
       <r>     5.8709     0.0000    40.0000 </r>
       <r>     6.2565     0.0000    40.0000 </r>
       <r>     6.6421     0.0000    40.0000 </r>
       <r>     7.0278     0.2299    40.0886 </r>
       <r>     7.4134     0.6019    40.3259 </r>
       <r>     7.7991     0.1274    40.3750 </r>
       <r>     8.1847     0.6174    40.6131 </r>
       <r>     8.5703     3.5900    41.9976 </r>
       <r>     8.9560     2.1144    42.8131 </r>
       <r>     9.3416     2.1359    43.6368 </r>
       <r>     9.7273     4.3376    45.3372 </r>
       <r>    10.1129     2.5774    46.3686 </r>
       <r>    10.4985     2.8549    47.4874 </r>
       <r>    10.8842     2.9746    48.6531 </r>
       <r>    11.2698     5.0862    50.6409 </r>
       <r>    11.6555     5.2048    52.6733 </r>
       <r>    12.0411     2.7567    53.7364 </r>
       <r>    12.4267     4.2888    55.4140 </r>
       <r>    12.8124     5.3310    57.4699 </r>
       <r>    13.1980     1.0072    57.9197 </r>
       <r>    13.5837     1.1415    58.4090 </r>
       <r>    13.9693     2.9932    59.5633 </r>
       <r>    14.3550     1.4603    60.1264 </r>
       <r>    14.7406     0.0807    60.1603 </r>
       <r>    15.1262     2.5341    61.1375 </r>
       <r>    15.5119     2.7683    62.2060 </r>
       <r>    15.8975     0.6010    62.4505 </r>
       <r>    16.2832     1.3715    62.9971 </r>
       <r>    16.6688     1.0608    63.4062 </r>
       <r>    17.0544     1.9182    64.1460 </r>
       <r>    17.4401     1.3122    64.6623 </r>
       <r>    17.8257     2.4667    65.6403 </r>
       <r>    18.2114     1.9821    66.4057 </r>
       <r>    18.5970     0.0552    66.4275 </r>
       <r>    18.9826     5.1310    68.4062 </r>
       <r>    19.3683     1.7239    69.0710 </r>
       <r>    19.7539     2.7497    70.1338 </r>
       <r>    20.1396     4.6807    71.9928 </r>
       <r>    20.5252     1.5667    72.6042 </r>
       <r>    20.9108     2.1488    73.4329 </r>
       <r>    21.2965     1.1091    73.8612 </r>
       <r>    21.6821     4.1475    75.4607 </r>
       <r>    22.0678     2.3150    76.3615 </r>
       <r>    22.4534     4.1616    77.9668 </r>
       <r>    22.8391     0.1027    78.0084 </r>
       <r>    23.2247     4.0885    79.5851 </r>
       <r>    23.6103     1.9101    80.4609 </r>
       <r>    23.9960     0.9589    80.8394 </r>
       <r>    24.3816     2.2515    81.7077 </r>
       <r>    24.7673     4.5004    83.4855 </r>
       <r>    25.1529     4.0529    85.1059 </r>
       <r>    25.5385     2.8818    86.2705 </r>
       <r>    25.9242     1.0711    86.6836 </r>
       <r>    26.3098     1.1435    87.1285 </r>
       <r>    26.6955     3.2273    88.3731 </r>
       <r>    27.0811     1.3008    88.8766 </r>
       <r>    27.4667     3.8142    90.3475 </r>
       <r>    27.8524     3.9358    91.9554 </r>
       <r>    28.2380     2.6620    93.0312 </r>
       <r>    28.6237     1.7805    93.7179 </r>
       <r>    29.0093     0.0000    93.8125 </r>
       <r>    29.3949     3.6918    95.2362 </r>
       <r>    29.7806     3.4438    96.6880 </r>
       <r>    30.1662     1.3985    97.2273 </r>
       <r>    30.5519     3.3264    98.5329 </r>
       <r>    30.9375     0.3354    98.6623 </r>
       <r>    31.3231     2.8478    99.7605 </r>
       <r>    31.7088     3.0790   101.0937 </r>
       <r>    32.0944     2.9610   102.2356 </r>
       <r>    32.4801     2.7175   103.3012 </r>
       <r>    32.8657     2.6067   104.3742 </r>
       <r>    33.2514     4.8608   106.2488 </r>
       <r>    33.6370     3.3263   107.5828 </r>
       <r>    34.0226     5.3545   109.6508 </r>
       <r>    34.4083     3.0233   110.8267 </r>
       <r>    34.7939     2.9001   111.9451 </r>
       <r>    35.1796     3.0247   113.1145 </r>
       <r>    35.5652     4.4312   114.8709 </r>
       <r>    35.9508     3.8145   116.3554 </r>
       <r>    36.3365     6.0707   118.6970 </r>
       <r>    36.7221     4.9473   120.6187 </r>
       <r>    37.1078     4.6884   122.4327 </r>
       <r>    37.4934     4.0636   124.0789 </r>
       <r>    37.8790     2.4337   125.0404 </r>
       <r>    38.2647     3.0388   126.2344 </r>
       <r>    38.6503     4.8332   128.1480 </r>
       <r>    39.0360     6.4879   130.7717 </r>
       <r>    39.4216     1.5384   131.4067 </r>
       <r>    39.8072     2.2552   132.2764 </r>
       <r>    40.1929     4.1232   133.9358 </r>
       <r>    40.5785     1.4345   134.4993 </r>
       <r>    40.9642     1.3801   135.0315 </r>
       <r>    41.3498     2.4734   135.9854 </r>
       <r>    41.7355     3.3591   137.2808 </r>
       <r>    42.1211     2.6250   138.2936 </r>
       <r>    42.5067     3.8617   139.7934 </r>
       <r>    42.8924     3.8048   141.2725 </r>
       <r>    43.2780     2.7458   142.3467 </r>
       <r>    43.6637     2.8870   143.4600 </r>
       <r>    44.0493     4.6338   145.2470 </r>
       <r>    44.4349     4.9180   147.1881 </r>
       <r>    44.8206     2.6181   148.2019 </r>
       <r>    45.2062     3.1004   149.5105 </r>
       <r>    45.5919     2.1866   150.3745 </r>
       <r>    45.9775     3.0452   151.5494 </r>
       <r>    46.3631     5.6599   153.8470 </r>
       <r>    46.7488     5.8395   156.1457 </r>
       <r>    47.1344     4.9998   158.1187 </r>
       <r>    47.5201     3.8042   159.6003 </r>
       <r>    47.9057     3.9320   161.1171 </r>
       <r>    48.2913     3.0551   162.3109 </r>
       <r>    48.6770     2.5038   163.2766 </r>
       <r>    49.0626     3.5873   164.6600 </r>
       <r>    49.4483     3.7494   166.1453 </r>
       <r>    49.8339     2.8610   167.3467 </r>
       <r>    50.2196     3.5599   168.7195 </r>
       <r>    50.6052     5.4001   170.8020 </r>
       <r>    50.9908     3.3955   172.1532 </r>
       <r>    51.3765     4.2380   173.7876 </r>
       <r>    51.7621     5.1466   175.7730 </r>
       <r>    52.1478     4.9447   177.7554 </r>
       <r>    52.5334     2.9329   179.0886 </r>
       <r>    52.9190     3.4950   180.4397 </r>
       <r>    53.3047     2.4905   181.4327 </r>
       <r>    53.6903     5.5391   183.5688 </r>
       <r>    54.0760     2.5894   184.5709 </r>
       <r>    54.4616     3.4221   185.8906 </r>
       <r>    54.8472     1.6876   186.5655 </r>
       <r>    55.2329     4.7709   188.4053 </r>
       <r>    55.6185     2.8941   189.5224 </r>
       <r>    56.0042     5.8557   191.8568 </r>
       <r>    56.3898     2.3892   192.7974 </r>
       <r>    56.7754     3.4643   194.1334 </r>
       <r>    57.1611     1.9434   194.9682 </r>
       <r>    57.5467     3.3465   196.2594 </r>
       <r>    57.9324     4.4788   198.0244 </r>
       <r>    58.3180     2.5903   199.0244 </r>
       <r>    58.7036     4.7350   200.8511 </r>
       <r>    59.0893     6.2296   203.2648 </r>
       <r>    59.4749     3.6085   204.7230 </r>
       <r>    59.8606     5.0040   206.6662 </r>
       <r>    60.2462     1.2029   207.1826 </r>
       <r>    60.6319     0.9164   207.5360 </r>
       <r>    61.0175     0.0515   207.6449 </r>
       <r>    61.4031     0.4347   207.8125 </r>
       <r>    61.7888     0.0000   207.8125 </r>
       <r>    62.1744     0.4862   208.0000 </r>
       <r>    62.5601     0.0000   208.0000 </r>
       <r>    62.9457     0.0000   208.0000 </r>
       <r>    63.3313     0.0000   208.0000 </r>
       <r>    63.7170     0.0000   208.0000 </r>
       <r>    64.1026     0.0000   208.0000 </r>
       <r>    64.4883     0.0000   208.0000 </r>
       <r>    64.8739     0.0000   208.0000 </r>
       <r>    65.2595     0.0000   208.0000 </r>
       <r>    65.6452     0.0000   208.0000 </r>
       <r>    66.0308     0.0000   208.0000 </r>
       <r>    66.4165     0.0000   208.0000 </r>
       <r>    66.8021     0.0000   208.0000 </r>
       <r>    67.1877     0.0000   208.0000 </r>
      </set>
     </set>
    </array>
   </total>
   <partial>
    <array>
     <dimension dim="1">gridpoints</dimension>
     <dimension dim="2">spin</dimension>
     <dimension dim="3">ion</dimension>
     <field>energy</field>
     <field>    s</field>
     <field>   py</field>
     <field>   pz</field>
     <field>   px</field>
     <field>  dxy</field>
     <field>  dyz</field>
     <field>  dz2</field>
     <field>  dxz</field>
     <field>x2-y2</field>
     <set>
      <set comment="ion 1">
       <set comment="spin 1">
        <r>   -48.5045     0.0000     0.0000     0.0000     0.0000     0.0000     0.0000     0.0000     0.0000     0.0000 </r>
        <r>   -48.1189     0.0000     0.0000     0.0000     0.0000     0.0000     0.0000     0.0000     0.0000     0.0000 </r>
        <r>   -47.7332     0.0000     0.0000     0.0000     0.0000     0.0000     0.0000     0.0000     0.0000     0.0000 </r>
        <r>   -47.3476     0.0000     0.0000     0.0000     0.0000     0.0000     0.0000     0.0000     0.0000     0.0000 </r>
        <r>   -46.9619     0.0000     0.0000     0.0000     0.0000     0.0000     0.0000     0.0000     0.0000     0.0000 </r>
        <r>   -46.5763     0.0000     0.0000     0.0000     0.0000     0.0000     0.0000     0.0000     0.0000     0.0000 </r>
        <r>   -46.1907     0.0000     0.0000     0.0000     0.0000     0.0000     0.0000     0.0000     0.0000     0.0000 </r>
        <r>   -45.8050     0.0000     0.0000     0.0000     0.0000     0.0000     0.0000     0.0000     0.0000     0.0000 </r>
        <r>   -45.4194     0.0000     0.0000     0.0000     0.0000     0.0000     0.0000     0.0000     0.0000     0.0000 </r>
        <r>   -45.0337     0.0000     0.0000     0.0000     0.0000     0.0000     0.0000     0.0000     0.0000     0.0000 </r>
        <r>   -44.6481     0.0000     0.0000     0.0000     0.0000     0.0000     0.0000     0.0000     0.0000     0.0000 </r>
[...]
        <r>  0.0000  0.0019  0.0000  0.0049  0.0000  0.0000  0.0000  0.0000  0.0000 </r>
        <r>  0.0000  0.0000  0.0019  0.0015  0.0000  0.0000  0.0000  0.0000  0.0000 </r>
        <r>  0.0000  0.0015  0.0049  0.0000  0.0000  0.0000  0.0000  0.0000  0.0000 </r>
       </set>
       <set comment="band 67">
        <r>  0.0000  0.0034  0.0275  0.0036  0.0000  0.0000  0.0000  0.0000  0.0000 </r>
        <r>  0.0000  0.0000  0.0000  0.0000  0.1093  0.0145  0.0000  0.0135  0.0000 </r>
        <r>  0.0000  0.0009  0.0000  0.0008  0.0000  0.0000  0.0000  0.0000  0.0000 </r>
        <r>  0.0000  0.0000  0.0009  0.0066  0.0000  0.0000  0.0000  0.0000  0.0000 </r>
        <r>  0.0000  0.0066  0.0008  0.0000  0.0000  0.0000  0.0000  0.0000  0.0000 </r>
       </set>
       <set comment="band 68">
        <r>  0.0000  0.0107  0.0007  0.0230  0.0000  0.0000  0.0000  0.0000  0.0000 </r>
        <r>  0.0000  0.0000  0.0000  0.0000  0.0030  0.0916  0.0000  0.0427  0.0000 </r>
        <r>  0.0000  0.0055  0.0000  0.0026  0.0000  0.0000  0.0000  0.0000  0.0000 </r>
        <r>  0.0000  0.0000  0.0055  0.0002  0.0000  0.0000  0.0000  0.0000  0.0000 </r>
        <r>  0.0000  0.0002  0.0026  0.0000  0.0000  0.0000  0.0000  0.0000  0.0000 </r>
       </set>
       <set comment="band 69">
        <r>  1.0345  0.0000  0.0000  0.0000  0.0000  0.0000  0.0000  0.0000  0.0000 </r>
        <r>  0.0000  0.0000  0.0000  0.0000  0.0000  0.0000  0.0000  0.0000  0.0000 </r>
        <r>  0.0000  0.0000  0.0000  0.0000  0.0000  0.0000  0.0000  0.0000  0.0000 </r>
        <r>  0.0000  0.0000  0.0000  0.0000  0.0000  0.0000  0.0000  0.0000  0.0000 </r>
        <r>  0.0000  0.0000  0.0000  0.0000  0.0000  0.0000  0.0000  0.0000  0.0000 </r>
       </set>
       <set comment="band 70">
        <r>  0.0000  0.0000  0.0000  0.0000  0.0000  0.0000  0.0000  0.0000  0.0000 </r>
        <r>  0.0000  0.0000  0.0000  0.0000  0.0000  0.0000  0.0000  0.0000  0.0000 </r>
        <r>  0.0000  0.0560  0.0000  0.0022  0.0000  0.0000  0.0000  0.0000  0.0000 </r>
        <r>  0.0000  0.0000  0.0560  0.0345  0.0000  0.0000  0.0000  0.0000  0.0000 </r>
        <r>  0.0000  0.0345  0.0022  0.0000  0.0000  0.0000  0.0000  0.0000  0.0000 </r>
       </set>
       <set comment="band 71">
        <r>  0.0000  0.0000  0.0000  0.0000  0.0000  0.0000  0.0000  0.0000  0.0000 </r>
        <r>  0.0000  0.0000  0.0000  0.0000  0.0000  0.0000  0.0000  0.0000  0.0000 </r>
        <r>  0.0000  0.0089  0.0000  0.0802  0.0000  0.0000  0.0000  0.0000  0.0000 </r>
        <r>  0.0000  0.0000  0.0089  0.0036  0.0000  0.0000  0.0000  0.0000  0.0000 </r>
        <r>  0.0000  0.0036  0.0802  0.0000  0.0000  0.0000  0.0000  0.0000  0.0000 </r>
       </set>
       <set comment="band 72">
        <r>  0.0000  0.0000  0.0000  0.0000  0.0000  0.0000  0.0000  0.0000  0.0000 </r>
        <r>  0.0000  0.0000  0.0000  0.0000  0.0000  0.0000  0.0000  0.0000  0.0000 </r>
        <r>  0.0000  0.0278  0.0000  0.0104  0.0000  0.0000  0.0000  0.0000  0.0000 </r>
        <r>  0.0000  0.0000  0.0278  0.0545  0.0000  0.0000  0.0000  0.0000  0.0000 </r>
        <r>  0.0000  0.0545  0.0104  0.0000  0.0000  0.0000  0.0000  0.0000  0.0000 </r>
       </set>
       <set comment="band 73">
        <r>  0.0000  0.0000  0.0000  0.0000  0.0857  0.0745  0.0000  0.0152  0.0000 </r>
        <r>  0.0000  0.0080  0.0449  0.0390  0.0000  0.0000  0.0000  0.0000  0.0000 </r>
        <r>  0.0012  0.0000  0.0000  0.0000  0.0000  0.0000  0.0000  0.0000  0.0000 </r>
        <r>  0.0002  0.0000  0.0000  0.0000  0.0000  0.0000  0.0000  0.0000  0.0000 </r>
        <r>  0.0010  0.0000  0.0000  0.0000  0.0000  0.0000  0.0000  0.0000  0.0000 </r>
       </set>
       <set comment="band 74">
        <r>  0.0000  0.0000  0.0000  0.0000  0.0438  0.0242  0.0000  0.1075  0.0000 </r>
        <r>  0.0000  0.0563  0.0229  0.0127  0.0000  0.0000  0.0000  0.0000  0.0000 </r>
        <r>  0.0006  0.0000  0.0000  0.0000  0.0000  0.0000  0.0000  0.0000  0.0000 </r>
        <r>  0.0015  0.0000  0.0000  0.0000  0.0000  0.0000  0.0000  0.0000  0.0000 </r>
        <r>  0.0003  0.0000  0.0000  0.0000  0.0000  0.0000  0.0000  0.0000  0.0000 </r>
       </set>
       <set comment="band 75">
        <r>  0.0000  0.0000  0.0000  0.0000  0.0460  0.0767  0.0000  0.0527  0.0000 </r>
        <r>  0.0000  0.0276  0.0241  0.0402  0.0000  0.0000  0.0000  0.0000  0.0000 </r>
        <r>  0.0006  0.0000  0.0000  0.0000  0.0000  0.0000  0.0000  0.0000  0.0000 </r>
        <r>  0.0007  0.0000  0.0000  0.0000  0.0000  0.0000  0.0000  0.0000  0.0000 </r>
        <r>  0.0010  0.0000  0.0000  0.0000  0.0000  0.0000  0.0000  0.0000  0.0000 </r>
       </set>
       <set comment="band 76">
        <r>  0.0000  0.0000  0.0000  0.0000  0.0000  0.0000  0.1628  0.0000  0.3053 </r>
        <r>  0.0000  0.0000  0.0000  0.0000  0.0000  0.0000  0.0000  0.0000  0.0000 </r>
        <r>  0.0000  0.0000  0.0000  0.0000  0.0000  0.0000  0.0000  0.0000  0.0000 </r>
        <r>  0.0000  0.0000  0.0000  0.0000  0.0000  0.0000  0.0000  0.0000  0.0000 </r>
        <r>  0.0000  0.0000  0.0000  0.0000  0.0000  0.0000  0.0000  0.0000  0.0000 </r>
       </set>
       <set comment="band 77">
        <r>  0.0000  0.0000  0.0000  0.0000  0.0000  0.0000  0.3053  0.0000  0.1628 </r>
        <r>  0.0000  0.0000  0.0000  0.0000  0.0000  0.0000  0.0000  0.0000  0.0000 </r>
        <r>  0.0000  0.0000  0.0000  0.0000  0.0000  0.0000  0.0000  0.0000  0.0000 </r>
        <r>  0.0000  0.0000  0.0000  0.0000  0.0000  0.0000  0.0000  0.0000  0.0000 </r>
        <r>  0.0000  0.0000  0.0000  0.0000  0.0000  0.0000  0.0000  0.0000  0.0000 </r>
       </set>
       <set comment="band 78">
        <r>  0.0000  0.0192  0.0008  0.1663  0.0000  0.0000  0.0000  0.0000  0.0000 </r>
        <r>  0.0000  0.0000  0.0000  0.0000  0.0000  0.0025  0.0000  0.0003  0.0000 </r>
        <r>  0.0000  0.0002  0.0000  0.0000  0.0000  0.0000  0.0000  0.0000  0.0000 </r>
        <r>  0.0000  0.0000  0.0002  0.0000  0.0000  0.0000  0.0000  0.0000  0.0000 </r>
        <r>  0.0000  0.0000  0.0000  0.0000  0.0000  0.0000  0.0000  0.0000  0.0000 </r>
       </set>
       <set comment="band 79">
        <r>  0.0000  0.0427  0.1401  0.0033  0.0000  0.0000  0.0000  0.0000  0.0000 </r>
        <r>  0.0000  0.0000  0.0000  0.0000  0.0021  0.0000  0.0000  0.0006  0.0000 </r>
        <r>  0.0000  0.0000  0.0000  0.0000  0.0000  0.0000  0.0000  0.0000  0.0000 </r>
        <r>  0.0000  0.0000  0.0000  0.0002  0.0000  0.0000  0.0000  0.0000  0.0000 </r>
        <r>  0.0000  0.0002  0.0000  0.0000  0.0000  0.0000  0.0000  0.0000  0.0000 </r>
       </set>
       <set comment="band 80">
        <r>  0.0000  0.1243  0.0453  0.0166  0.0000  0.0000  0.0000  0.0000  0.0000 </r>
        <r>  0.0000  0.0000  0.0000  0.0000  0.0007  0.0002  0.0000  0.0019  0.0000 </r>
        <r>  0.0000  0.0000  0.0000  0.0001  0.0000  0.0000  0.0000  0.0000  0.0000 </r>
        <r>  0.0000  0.0000  0.0000  0.0000  0.0000  0.0000  0.0000  0.0000  0.0000 </r>
        <r>  0.0000  0.0000  0.0001  0.0000  0.0000  0.0000  0.0000  0.0000  0.0000 </r>
       </set>
       <set comment="band 81">
        <r>  0.0000  0.0000  0.0000  0.0000  0.0000  0.0000  0.0000  0.0000  0.0000 </r>
        <r>  0.4363  0.0000  0.0000  0.0000  0.0000  0.0000  0.0000  0.0000  0.0000 </r>
        <r>  0.0000  0.0000  0.0001  0.0000  0.0000  0.0000  0.0000  0.0000  0.0000 </r>
        <r>  0.0000  0.0001  0.0000  0.0000  0.0000  0.0000  0.0000  0.0000  0.0000 </r>
        <r>  0.0000  0.0000  0.0000  0.0001  0.0000  0.0000  0.0000  0.0000  0.0000 </r>
       </set>
       <set comment="band 82">
        <r>  0.0000  0.0000  0.0000  0.0000  0.0000  0.0000  0.0000  0.0000  0.0000 </r>
        <r>  0.0000  0.0000  0.0000  0.0000  0.0000  0.0000  0.0000  0.0000  0.0000 </r>
        <r>  0.0000  0.0000  0.0000  0.0000  0.0000  0.0000  0.0000  0.0000  0.0000 </r>
        <r>  0.0000  0.0000  0.0000  0.0000  0.0000  0.0000  0.0000  0.0000  0.0000 </r>
        <r>  0.0000  0.0000  0.0000  0.0000  0.0000  0.0000  0.0000  0.0000  0.0000 </r>
       </set>
       <set comment="band 83">
        <r>  0.0000  0.0000  0.0000  0.0000  0.0000  0.0000  0.0000  0.0000  0.0000 </r>
        <r>  0.0000  0.0000  0.0000  0.0000  0.0000  0.0000  0.0000  0.0000  0.0000 </r>
        <r>  0.0000  0.0000  0.0000  0.0000  0.0000  0.0000  0.0000  0.0000  0.0000 </r>
        <r>  0.0000  0.0000  0.0000  0.0000  0.0000  0.0000  0.0000  0.0000  0.0000 </r>
        <r>  0.0000  0.0000  0.0000  0.0000  0.0000  0.0000  0.0000  0.0000  0.0000 </r>
       </set>
       <set comment="band 84">
        <r>  0.0000  0.0000  0.0000  0.0000  0.0000  0.0000  0.0000  0.0000  0.0000 </r>
        <r>  0.0000  0.0000  0.0000  0.0000  0.0000  0.0000  0.0000  0.0000  0.0000 </r>
        <r>  0.0000  0.0000  0.0000  0.0000  0.0000  0.0000  0.0000  0.0000  0.0000 </r>
        <r>  0.0000  0.0000  0.0000  0.0000  0.0000  0.0000  0.0000  0.0000  0.0000 </r>
        <r>  0.0000  0.0000  0.0000  0.0000  0.0000  0.0000  0.0000  0.0000  0.0000 </r>
       </set>
       <set comment="band 85">
        <r>  0.1912  0.0000  0.0000  0.0000  0.0000  0.0000  0.0000  0.0000  0.0000 </r>
        <r>  0.0000  0.0000  0.0000  0.0000  0.0000  0.0000  0.0000  0.0000  0.0000 </r>
        <r>  0.0000  0.0000  0.0000  0.0000  0.0000  0.0000  0.0000  0.0000  0.0000 </r>
        <r>  0.0000  0.0000  0.0000  0.0000  0.0000  0.0000  0.0000  0.0000  0.0000 </r>
        <r>  0.0000  0.0000  0.0000  0.0000  0.0000  0.0000  0.0000  0.0000  0.0000 </r>
       </set>
       <set comment="band 86">
        <r>  0.0000  0.0000  0.0000  0.0000  0.0002  0.0019  0.0000  0.0056  0.0000 </r>
        <r>  0.0000  0.0315  0.0013  0.0109  0.0000  0.0000  0.0000  0.0000  0.0000 </r>
        <r>  0.0005  0.0000  0.0000  0.0000  0.0000  0.0000  0.0000  0.0000  0.0000 </r>
        <r>  0.0132  0.0000  0.0000  0.0000  0.0000  0.0000  0.0000  0.0000  0.0000 </r>
        <r>  0.0045  0.0000  0.0000  0.0000  0.0000  0.0000  0.0000  0.0000  0.0000 </r>
       </set>
       <set comment="band 87">
        <r>  0.0000  0.0000  0.0000  0.0000  0.0016  0.0049  0.0000  0.0013  0.0000 </r>
        <r>  0.0000  0.0071  0.0092  0.0274  0.0000  0.0000  0.0000  0.0000  0.0000 </r>
        <r>  0.0038  0.0000  0.0000  0.0000  0.0000  0.0000  0.0000  0.0000  0.0000 </r>
        <r>  0.0030  0.0000  0.0000  0.0000  0.0000  0.0000  0.0000  0.0000  0.0000 </r>
        <r>  0.0114  0.0000  0.0000  0.0000  0.0000  0.0000  0.0000  0.0000  0.0000 </r>
       </set>
       <set comment="band 88">
        <r>  0.0000  0.0000  0.0000  0.0000  0.0059  0.0010  0.0000  0.0009  0.0000 </r>
        <r>  0.0000  0.0051  0.0332  0.0054  0.0000  0.0000  0.0000  0.0000  0.0000 </r>
        <r>  0.0139  0.0000  0.0000  0.0000  0.0000  0.0000  0.0000  0.0000  0.0000 </r>
        <r>  0.0021  0.0000  0.0000  0.0000  0.0000  0.0000  0.0000  0.0000  0.0000 </r>
        <r>  0.0023  0.0000  0.0000  0.0000  0.0000  0.0000  0.0000  0.0000  0.0000 </r>
       </set>
       <set comment="band 89">
        <r>  0.0000  0.0000  0.0000  0.0000  0.0000  0.0000  0.0000  0.0000  0.0000 </r>
        <r>  0.0000  0.0000  0.0000  0.0000  0.0000  0.0000  0.2383  0.0000  0.0080 </r>
        <r>  0.0000  0.0000  0.1335  0.0000  0.0000  0.0000  0.0000  0.0000  0.0000 </r>
        <r>  0.0000  0.0163  0.0000  0.0000  0.0000  0.0000  0.0000  0.0000  0.0000 </r>
        <r>  0.0000  0.0000  0.0000  0.0572  0.0000  0.0000  0.0000  0.0000  0.0000 </r>
       </set>
       <set comment="band 90">
        <r>  0.0000  0.0000  0.0000  0.0000  0.0000  0.0000  0.0000  0.0000  0.0000 </r>
        <r>  0.0000  0.0000  0.0000  0.0000  0.0000  0.0000  0.0080  0.0000  0.2383 </r>
        <r>  0.0000  0.0000  0.0045  0.0000  0.0000  0.0000  0.0000  0.0000  0.0000 </r>
        <r>  0.0000  0.1217  0.0000  0.0000  0.0000  0.0000  0.0000  0.0000  0.0000 </r>
        <r>  0.0000  0.0000  0.0000  0.0808  0.0000  0.0000  0.0000  0.0000  0.0000 </r>
       </set>
       <set comment="band 91">
        <r>  0.0000  0.0000  0.0000  0.0000  0.0000  0.0000  0.0000  0.0000  0.0000 </r>
        <r>  0.0000  0.0000  0.0000  0.0000  0.0000  0.0000  0.0000  0.0000  0.0000 </r>
        <r>  0.0000  0.0024  0.0000  0.0061  0.0000  0.0000  0.0000  0.0000  0.0000 </r>
        <r>  0.0000  0.0000  0.0024  0.0009  0.0000  0.0000  0.0000  0.0000  0.0000 </r>
        <r>  0.0000  0.0009  0.0061  0.0000  0.0000  0.0000  0.0000  0.0000  0.0000 </r>
       </set>
       <set comment="band 92">
        <r>  0.0000  0.0000  0.0000  0.0000  0.0000  0.0000  0.0000  0.0000  0.0000 </r>
        <r>  0.0000  0.0000  0.0000  0.0000  0.0000  0.0000  0.0000  0.0000  0.0000 </r>
        <r>  0.0000  0.0067  0.0000  0.0026  0.0000  0.0000  0.0000  0.0000  0.0000 </r>
        <r>  0.0000  0.0000  0.0067  0.0001  0.0000  0.0000  0.0000  0.0000  0.0000 </r>
        <r>  0.0000  0.0001  0.0026  0.0000  0.0000  0.0000  0.0000  0.0000  0.0000 </r>
       </set>
       <set comment="band 93">
        <r>  0.0000  0.0000  0.0000  0.0000  0.0000  0.0000  0.0000  0.0000  0.0000 </r>
        <r>  0.0000  0.0000  0.0000  0.0000  0.0000  0.0000  0.0000  0.0000  0.0000 </r>
        <r>  0.0000  0.0003  0.0000  0.0007  0.0000  0.0000  0.0000  0.0000  0.0000 </r>
        <r>  0.0000  0.0000  0.0003  0.0084  0.0000  0.0000  0.0000  0.0000  0.0000 </r>
        <r>  0.0000  0.0084  0.0007  0.0000  0.0000  0.0000  0.0000  0.0000  0.0000 </r>
       </set>
       <set comment="band 94">
        <r>  0.3583  0.0000  0.0000  0.0000  0.0000  0.0000  0.0000  0.0000  0.0000 </r>
        <r>  0.0000  0.0000  0.0000  0.0000  0.0000  0.0000  0.0000  0.0000  0.0000 </r>
        <r>  0.0000  0.0000  0.0000  0.0000  0.0000  0.0000  0.0000  0.0000  0.0000 </r>
        <r>  0.0000  0.0000  0.0000  0.0000  0.0000  0.0000  0.0000  0.0000  0.0000 </r>
        <r>  0.0000  0.0000  0.0000  0.0000  0.0000  0.0000  0.0000  0.0000  0.0000 </r>
       </set>
       <set comment="band 95">
        <r>  0.0000  0.0000  0.0000  0.0000  0.0000  0.0000  0.0000  0.0000  0.0000 </r>
        <r>  0.0000  0.0000  0.0000  0.0000  0.0000  0.0000  0.0000  0.0000  0.0000 </r>
        <r>  0.0000  0.0000  0.0000  0.0000  0.0000  0.0000  0.0000  0.0000  0.0000 </r>
        <r>  0.0000  0.0000  0.0000  0.0000  0.0000  0.0000  0.0000  0.0000  0.0000 </r>
        <r>  0.0000  0.0000  0.0000  0.0000  0.0000  0.0000  0.0000  0.0000  0.0000 </r>
       </set>
       <set comment="band 96">
        <r>  0.0000  0.0000  0.0000  0.0000  0.0000  0.0000  0.0000  0.0000  0.0000 </r>
        <r>  0.0000  0.0000  0.0000  0.0000  0.0000  0.0000  0.0000  0.0000  0.0000 </r>
        <r>  0.0000  0.0000  0.0000  0.0000  0.0000  0.0000  0.0000  0.0000  0.0000 </r>
        <r>  0.0000  0.0000  0.0000  0.0000  0.0000  0.0000  0.0000  0.0000  0.0000 </r>
        <r>  0.0000  0.0000  0.0000  0.0000  0.0000  0.0000  0.0000  0.0000  0.0000 </r>
       </set>
       <set comment="band 97">
        <r>  0.0000  0.0000  0.0000  0.0000  0.0000  0.0000  0.0000  0.0000  0.0000 </r>
        <r>  0.0000  0.0000  0.0000  0.0000  0.0000  0.0000  0.0000  0.0000  0.0000 </r>
        <r>  0.0000  0.0000  0.0000  0.0000  0.0000  0.0000  0.0000  0.0000  0.0000 </r>
        <r>  0.0000  0.0000  0.0000  0.0000  0.0000  0.0000  0.0000  0.0000  0.0000 </r>
        <r>  0.0000  0.0000  0.0000  0.0000  0.0000  0.0000  0.0000  0.0000  0.0000 </r>
       </set>
       <set comment="band 98">
        <r>  0.0000  0.2505  0.0514  0.0352  0.0000  0.0000  0.0000  0.0000  0.0000 </r>
        <r>  0.0000  0.0000  0.0000  0.0000  0.0015  0.0011  0.0000  0.0075  0.0000 </r>
        <r>  0.0000  0.0037  0.0000  0.0264  0.0000  0.0000  0.0000  0.0000  0.0000 </r>
        <r>  0.0000  0.0000  0.0037  0.0054  0.0000  0.0000  0.0000  0.0000  0.0000 </r>
        <r>  0.0000  0.0054  0.0264  0.0000  0.0000  0.0000  0.0000  0.0000  0.0000 </r>
       </set>
       <set comment="band 99">
        <r>  0.0000  0.0431  0.2736  0.0204  0.0000  0.0000  0.0000  0.0000  0.0000 </r>
        <r>  0.0000  0.0000  0.0000  0.0000  0.0082  0.0006  0.0000  0.0013  0.0000 </r>
        <r>  0.0000  0.0021  0.0000  0.0046  0.0000  0.0000  0.0000  0.0000  0.0000 </r>
        <r>  0.0000  0.0000  0.0021  0.0288  0.0000  0.0000  0.0000  0.0000  0.0000 </r>
        <r>  0.0000  0.0288  0.0046  0.0000  0.0000  0.0000  0.0000  0.0000  0.0000 </r>
       </set>
       <set comment="band 100">
        <r>  0.0000  0.0435  0.0122  0.2816  0.0000  0.0000  0.0000  0.0000  0.0000 </r>
        <r>  0.0000  0.0000  0.0000  0.0000  0.0003  0.0082  0.0000  0.0013  0.0000 </r>
        <r>  0.0000  0.0296  0.0000  0.0046  0.0000  0.0000  0.0000  0.0000  0.0000 </r>
        <r>  0.0000  0.0000  0.0296  0.0013  0.0000  0.0000  0.0000  0.0000  0.0000 </r>
        <r>  0.0000  0.0013  0.0046  0.0000  0.0000  0.0000  0.0000  0.0000  0.0000 </r>
       </set>
       <set comment="band 101">
        <r>  0.0000  0.0017  0.0010  0.0025  0.0000  0.0000  0.0000  0.0000  0.0000 </r>
        <r>  0.0000  0.0000  0.0000  0.0000  0.0593  0.1450  0.0000  0.0942  0.0000 </r>
        <r>  0.0000  0.0007  0.0000  0.0005  0.0000  0.0000  0.0000  0.0000  0.0000 </r>
        <r>  0.0000  0.0000  0.0007  0.0003  0.0000  0.0000  0.0000  0.0000  0.0000 </r>
        <r>  0.0000  0.0003  0.0005  0.0000  0.0000  0.0000  0.0000  0.0000  0.0000 </r>
       </set>
       <set comment="band 102">
        <r>  0.0000  0.0001  0.0037  0.0014  0.0000  0.0000  0.0000  0.0000  0.0000 </r>
        <r>  0.0000  0.0000  0.0000  0.0000  0.2139  0.0815  0.0000  0.0033  0.0000 </r>
        <r>  0.0000  0.0004  0.0000  0.0000  0.0000  0.0000  0.0000  0.0000  0.0000 </r>
        <r>  0.0000  0.0000  0.0004  0.0011  0.0000  0.0000  0.0000  0.0000  0.0000 </r>
        <r>  0.0000  0.0011  0.0000  0.0000  0.0000  0.0000  0.0000  0.0000  0.0000 </r>
       </set>
       <set comment="band 103">
        <r>  0.0000  0.0035  0.0005  0.0014  0.0001  0.0004  0.0000  0.0001  0.0000 </r>
        <r>  0.0000  0.0000  0.0000  0.0000  0.0251  0.0716  0.0000  0.2010  0.0000 </r>
        <r>  0.0000  0.0004  0.0000  0.0010  0.0000  0.0000  0.0000  0.0000  0.0000 </r>
        <r>  0.0000  0.0000  0.0004  0.0001  0.0000  0.0000  0.0000  0.0000  0.0000 </r>
        <r>  0.0000  0.0001  0.0010  0.0000  0.0000  0.0000  0.0000  0.0000  0.0000 </r>
       </set>
       <set comment="band 104">
        <r>  0.0000  0.0000  0.0000  0.0000  0.2335  0.0690  0.0000  0.0485  0.0000 </r>
        <r>  0.0000  0.0042  0.0189  0.0057  0.0000  0.0000  0.0000  0.0000  0.0000 </r>
        <r>  0.0032  0.0000  0.0000  0.0000  0.0000  0.0000  0.0000  0.0000  0.0000 </r>
        <r>  0.0006  0.0000  0.0000  0.0000  0.0000  0.0000  0.0000  0.0000  0.0000 </r>
        <r>  0.0009  0.0000  0.0000  0.0000  0.0000  0.0000  0.0000  0.0000  0.0000 </r>
       </set>
      </set>
     </set>
    </set>
   </array>
  </projected>
 </calculation>
 <structure name="finalpos" >
  <crystal>
   <varray name="basis" >
    <v>       4.19200000       0.00000000       0.00000000 </v>
    <v>       0.00000000       4.19200000       0.00000000 </v>
    <v>       0.00000000       0.00000000       4.19200000 </v>
   </varray>
   <i name="volume">     73.66544589 </i>
   <varray name="rec_basis" >
    <v>       0.23854962       0.00000000       0.00000000 </v>
    <v>       0.00000000       0.23854962       0.00000000 </v>
    <v>       0.00000000       0.00000000       0.23854962 </v>
   </varray>
  </crystal>
  <varray name="positions" >
   <v>       0.00000000       0.00000000       0.00000000 </v>
   <v>       0.50000000       0.50000000       0.50000000 </v>
   <v>       0.50000000       0.50000000       0.00000000 </v>
   <v>       0.50000000       0.00000000       0.50000000 </v>
   <v>       0.00000000       0.50000000       0.50000000 </v>
  </varray>
 </structure>
</modeling>
