<?xml version="1.0" encoding="ISO-8859-1"?>
<modeling>
 <generator>
  <i name="program" type="string">vasp </i>
  <i name="version" type="string">6.4.3  </i>
  <i name="subversion" type="string">19Mar24 (build Jul 01 2024 12:12:31) complex                          parallel </i>
  <i name="platform" type="string">LinuxIFC </i>
  <i name="date" type="string">2024 10 22 </i>
  <i name="time" type="string">00:45:31 </i>
 </generator>
 <incar>
  <i type="string" name="SYSTEM">BaZrO3</i>
  <i type="string" name="PREC">Normal</i>
  <i type="int" name="NELM">   100</i>
  <i type="int" name="IBRION">     2</i>
  <i name="EDIFF">      0.00000100</i>
  <i type="int" name="NSW">   500</i>
  <i name="ENCUT">    400.00000000</i>
  <i type="int" name="ISMEAR">     0</i>
  <i name="SIGMA">      0.05000000</i>
  <i type="logical" name="LWAVE"> T  </i>
  <i type="int" name="LORBIT">    11</i>
 </incar>
 <primitive_cell>
  <structure name="primitive_cell" >
   <crystal>
    <varray name="basis" >
     <v>       4.19200000       0.00000000       0.00000000 </v>
     <v>       0.00000000       4.19200000       0.00000000 </v>
     <v>       0.00000000       0.00000000       4.19200000 </v>
    </varray>
    <i name="volume">     73.66544589 </i>
    <varray name="rec_basis" >
     <v>       0.23854962       0.00000000       0.00000000 </v>
     <v>       0.00000000       0.23854962       0.00000000 </v>
     <v>       0.00000000       0.00000000       0.23854962 </v>
    </varray>
   </crystal>
   <varray name="positions" >
    <v>       0.00000000       0.00000000       0.00000000 </v>
    <v>       0.50000000       0.50000000       0.50000000 </v>
    <v>       0.50000000       0.50000000       0.00000000 </v>
    <v>       0.50000000       0.00000000       0.50000000 </v>
    <v>       0.00000000       0.50000000       0.50000000 </v>
   </varray>
  </structure>
  <varray name="primitive_index" >
   <v type="int" >        1 </v>
   <v type="int" >        2 </v>
   <v type="int" >        3 </v>
   <v type="int" >        4 </v>
   <v type="int" >        5 </v>
  </varray>
 </primitive_cell>
 <kpoints>
  <generation param="Gamma">
   <v type="int" name="divisions">       4        4        4 </v>
   <v name="usershift">      0.00000000       0.00000000       0.00000000 </v>
   <v name="genvec1">      0.25000000       0.00000000       0.00000000 </v>
   <v name="genvec2">      0.00000000       0.25000000       0.00000000 </v>
   <v name="genvec3">      0.00000000       0.00000000       0.25000000 </v>
   <v name="shift">      0.00000000       0.00000000       0.00000000 </v>
  </generation>
  <varray name="kpointlist" >
   <v>       0.00000000       0.00000000       0.00000000 </v>
   <v>       0.25000000       0.00000000       0.00000000 </v>
   <v>       0.50000000       0.00000000       0.00000000 </v>
   <v>       0.25000000       0.25000000       0.00000000 </v>
   <v>       0.50000000       0.25000000       0.00000000 </v>
   <v>       0.50000000       0.50000000       0.00000000 </v>
   <v>       0.25000000       0.25000000       0.25000000 </v>
   <v>       0.50000000       0.25000000       0.25000000 </v>
   <v>       0.50000000       0.50000000       0.25000000 </v>
   <v>       0.50000000       0.50000000       0.50000000 </v>
  </varray>
  <varray name="weights" >
   <v>       0.01562500 </v>
   <v>       0.09375000 </v>
   <v>       0.04687500 </v>
   <v>       0.18750000 </v>
   <v>       0.18750000 </v>
   <v>       0.04687500 </v>
   <v>       0.12500000 </v>
   <v>       0.18750000 </v>
   <v>       0.09375000 </v>
   <v>       0.01562500 </v>
  </varray>
 </kpoints>
 <parameters>
  <separator name="general" >
   <i type="string" name="SYSTEM">BaZrO3</i>
   <i type="logical" name="LCOMPAT"> F  </i>
  </separator>
  <separator name="electronic" >
   <i type="string" name="PREC">normal</i>
   <i name="ENMAX">    400.00000000</i>
   <i name="ENAUG">    605.39200000</i>
   <i name="EDIFF">      0.00000100</i>
   <i type="int" name="IALGO">    38</i>
   <i type="int" name="IWAVPR">    11</i>
   <i type="int" name="NBANDS">    24</i>
   <i type="int" name="NBANDSLOW">    -1</i>
   <i type="int" name="NBANDSHIGH">    -1</i>
   <i name="NELECT">     40.00000000</i>
   <i type="int" name="TURBO">     0</i>
   <i type="int" name="IRESTART">     0</i>
   <i type="int" name="NREBOOT">     0</i>
   <i type="int" name="NMIN">     0</i>
   <i name="EREF">      0.00000000</i>
   <separator name="electronic smearing" >
    <i type="int" name="ISMEAR">     0</i>
    <i name="SIGMA">      0.05000000</i>
    <i name="KSPACING">      0.50000000</i>
    <i type="logical" name="KGAMMA"> T  </i>
    <i type="logical" name="KBLOWUP"> T  </i>
   </separator>
   <separator name="electronic projectors" >
    <i type="logical" name="LREAL"> F  </i>
    <v name="ROPT">      0.00000000      0.00000000      0.00000000</v>
    <i type="int" name="LMAXPAW">  -100</i>
    <i type="int" name="LMAXMIX">     2</i>
    <i type="logical" name="NLSPLINE"> F  </i>
   </separator>
   <separator name="electronic startup" >
    <i type="int" name="ISTART">     1</i>
    <i type="int" name="ICHARG">     0</i>
    <i type="int" name="INIWAV">     1</i>
   </separator>
   <separator name="electronic spin" >
    <i type="int" name="ISPIN">     1</i>
    <i type="logical" name="LNONCOLLINEAR"> F  </i>
    <v name="MAGMOM">      1.00000000      1.00000000      1.00000000      1.00000000      1.00000000</v>
    <i name="NUPDOWN">     -1.00000000</i>
    <i type="logical" name="LSORBIT"> F  </i>
    <v name="SAXIS">      0.00000000      0.00000000      1.00000000</v>
    <i type="logical" name="LSPIRAL"> F  </i>
    <v name="QSPIRAL">      0.00000000      0.00000000      0.00000000</v>
    <i type="logical" name="LZEROZ"> F  </i>
   </separator>
   <separator name="electronic exchange-correlation" >
    <i type="logical" name="LASPH"> F  </i>
   </separator>
   <separator name="electronic convergence" >
    <i type="int" name="NELM">   100</i>
    <i type="int" name="NELMDL">     0</i>
    <i type="int" name="NELMIN">     2</i>
    <i name="ENINI">    400.00000000</i>
    <separator name="electronic convergence detail" >
     <i type="logical" name="LDIAG"> T  </i>
     <i type="logical" name="LSUBROT"> F  </i>
     <i name="WEIMIN">      0.00100000</i>
     <i name="EBREAK">      0.00000001</i>
     <i name="DEPER">      0.30000000</i>
     <i type="int" name="NRMM">     4</i>
     <i name="TIME">      0.40000000</i>
    </separator>
   </separator>
   <separator name="electronic mixer" >
    <i name="AMIX">      0.40000000</i>
    <i name="BMIX">      1.00000000</i>
    <i name="AMIN">      0.10000000</i>
    <i name="AMIX_MAG">      1.60000000</i>
    <i name="BMIX_MAG">      1.00000000</i>
    <separator name="electronic mixer details" >
     <i type="int" name="IMIX">     4</i>
     <i type="logical" name="MIXFIRST"> F  </i>
     <i type="int" name="MAXMIX">   -45</i>
     <i name="WC">    100.00000000</i>
     <i type="int" name="INIMIX">     1</i>
     <i type="int" name="MIXPRE">     1</i>
     <i type="int" name="MREMOVE">     5</i>
    </separator>
   </separator>
   <separator name="electronic dipolcorrection" >
    <i type="logical" name="LDIPOL"> F  </i>
    <i type="logical" name="LMONO"> F  </i>
    <i type="int" name="IDIPOL">     0</i>
    <i name="EPSILON">      1.00000000</i>
    <v name="DIPOL">   -100.00000000   -100.00000000   -100.00000000</v>
    <i name="EFIELD">      0.00000000</i>
    <i type="logical" name="LVACPOTAV"> F  </i>
   </separator>
  </separator>
  <separator name="grids" >
   <i type="int" name="NGX">    24</i>
   <i type="int" name="NGY">    24</i>
   <i type="int" name="NGZ">    24</i>
   <i type="int" name="NGXF">    48</i>
   <i type="int" name="NGYF">    48</i>
   <i type="int" name="NGZF">    48</i>
   <i type="logical" name="ADDGRID"> F  </i>
  </separator>
  <separator name="ionic" >
   <i type="int" name="NSW">   500</i>
   <i type="int" name="IBRION">     2</i>
   <i type="int" name="MDALGO">     0</i>
   <i type="int" name="ISIF">     2</i>
   <i name="PSTRESS">      0.00000000</i>
   <i name="EDIFFG">      0.00001000</i>
   <i type="int" name="NFREE">     1</i>
   <i name="POTIM">      0.50000000</i>
   <i name="SMASS">     -3.00000000</i>
   <i name="SCALEE">      1.00000000</i>
  </separator>
  <separator name="ionic md" >
   <i name="TEBEG">      0.00010000</i>
   <i name="TEEND">      0.00010000</i>
   <i type="int" name="NBLOCK">     1</i>
   <i type="int" name="KBLOCK">   500</i>
   <i type="int" name="NPACO">   256</i>
   <i name="APACO">     10.00000000</i>
  </separator>
  <separator name="symmetry" >
   <i type="int" name="ISYM">     2</i>
   <i name="SYMPREC">      0.00001000</i>
  </separator>
  <separator name="dos" >
   <i type="int" name="LORBIT">    11</i>
   <v name="RWIGS">     -1.00000000     -1.00000000     -1.00000000</v>
   <i type="int" name="NEDOS">   301</i>
   <i name="EMIN">     10.00000000</i>
   <i name="EMAX">    -10.00000000</i>
   <i name="EFERMI">      0.00000000</i>
  </separator>
  <separator name="writing" >
   <i type="int" name="NWRITE">     2</i>
   <i type="logical" name="LWAVE"> T  </i>
   <i type="logical" name="LDOWNSAMPLE"> F  </i>
   <i type="logical" name="LCHARG"> T  </i>
   <i type="logical" name="LPARD"> F  </i>
   <i type="logical" name="LVTOT"> F  </i>
   <i type="logical" name="LVHAR"> F  </i>
   <i type="logical" name="LELF"> F  </i>
   <i type="logical" name="LOPTICS"> F  </i>
   <v name="STM">      0.00000000      0.00000000      0.00000000      0.00000000      0.00000000      0.00000000      0.00000000</v>
  </separator>
  <separator name="performance" >
   <i type="int" name="NPAR">     8</i>
   <i type="int" name="NSIM">     4</i>
   <i type="int" name="NBLK">    -1</i>
   <i type="logical" name="LPLANE"> T  </i>
   <i type="logical" name="LSCALAPACK"> T  </i>
   <i type="logical" name="LSCAAWARE"> F  </i>
   <i type="logical" name="LSCALU"> F  </i>
   <i type="logical" name="LASYNC"> F  </i>
   <i type="logical" name="LORBITALREAL"> F  </i>
  </separator>
  <separator name="miscellaneous" >
   <i type="int" name="IDIOT">     3</i>
   <i type="int" name="PHON_NSTRUCT">    -1</i>
   <i type="logical" name="LMUSIC"> F  </i>
   <v name="POMASS">    137.32700000     91.22400000     16.00000000</v>
   <v name="DARWINR">      0.00000000      0.00000000      0.00000000</v>
   <v name="DARWINV">      1.00000000      1.00000000      1.00000000</v>
   <i type="logical" name="LCORR"> T  </i>
  </separator>
  <i type="logical" name="GGA_COMPAT"> T  </i>
  <i type="logical" name="LBERRY"> F  </i>
  <i type="int" name="ICORELEVEL">     0</i>
  <i type="logical" name="LDAU"> F  </i>
  <i type="int" name="I_CONSTRAINED_M">     0</i>
  <separator name="electronic exchange-correlation" >
   <i type="string" name="GGA    ">PE</i>
   <i type="string" name="XC_C">1</i>
   <i type="int" name="VOSKOWN">     0</i>
   <i type="logical" name="LHFCALC"> F  </i>
   <i type="string" name="PRECFOCK"></i>
   <i type="logical" name="LSYMGRAD"> F  </i>
   <i type="logical" name="LHFONE"> F  </i>
   <i type="logical" name="LRHFCALC"> F  </i>
   <i type="logical" name="LTHOMAS"> F  </i>
   <i type="logical" name="LMODELHF"> F  </i>
   <i type="logical" name="LFOCKACE"> F  </i>
   <i name="ENCUT4O">     -1.00000000</i>
   <i type="int" name="EXXOEP">     0</i>
   <i type="int" name="FOURORBIT">     0</i>
   <i name="AEXX">      0.00000000</i>
   <i name="HFALPHA">      0.00000000</i>
   <i name="MCALPHA">      0.00000000</i>
   <i name="ALDAX">      1.00000000</i>
   <i name="AGGAX">      1.00000000</i>
   <i name="AMGGAX">      1.00000000</i>
   <i name="ALDAC">      1.00000000</i>
   <i name="AGGAC">      1.00000000</i>
   <i name="AMGGAC">      1.00000000</i>
   <i type="int" name="NKREDX">     1</i>
   <i type="int" name="NKREDY">     1</i>
   <i type="int" name="NKREDZ">     1</i>
   <i type="logical" name="SHIFTRED"> F  </i>
   <i type="logical" name="ODDONLY"> F  </i>
   <i type="logical" name="EVENONLY"> F  </i>
   <i type="int" name="LMAXFOCK">     0</i>
   <i type="int" name="NMAXFOCKAE">     0</i>
   <i type="logical" name="LFOCKAEDFT"> F  </i>
   <i name="HFSCREEN">      0.00000000</i>
   <i name="HFSCREENC">      0.00000000</i>
   <i type="int" name="NBANDSGWLOW">     0</i>
  </separator>
  <separator name="vdW DFT" >
   <i type="logical" name="LUSE_VDW"> F  </i>
   <i type="int" name="IVDW_NL">    -1</i>
   <i type="logical" name="LSPIN_VDW"> F  </i>
   <i name="ZAB_VDW">     -0.84910000</i>
   <i name="GAMMA_VDW">      1.39626340</i>
   <i name="ALPHA_VDW">      0.00000000</i>
   <i name="PARAM1">      0.12340000</i>
   <i name="PARAM2">      1.00000000</i>
   <i name="BPARAM">      6.30000000</i>
   <i name="CPARAM">      0.00930000</i>
  </separator>
  <separator name="model GW" >
   <i type="int" name="MODEL_GW">     0</i>
   <i name="MODEL_EPS0">      8.83985351</i>
   <i name="MODEL_ALPHA">      1.00000000</i>
  </separator>
  <separator name="linear response parameters" >
   <i type="logical" name="LEPSILON"> F  </i>
   <i type="logical" name="LRPA"> F  </i>
   <i type="logical" name="LNABLA"> F  </i>
   <i type="logical" name="LVEL"> F  </i>
   <i name="CSHIFT">      0.10000000</i>
   <i name="OMEGAMAX">     -1.00000000</i>
   <i name="DEG_THRESHOLD">      0.00200000</i>
   <i name="RTIME">     -0.10000000</i>
   <i name="WPLASMAI">      0.00000000</i>
   <v name="DFIELD">      0.00000000      0.00000000      0.00000000</v>
   <v name="WPLASMA">      0.00000000      0.00000000      0.00000000      0.00000000      0.00000000      0.00000000      0.00000000      0.00000000      0.00000000</v>
  </separator>
  <separator name="orbital magnetization" >
   <i type="logical" name="NUCIND"> F  </i>
   <v name="MAGPOS">      0.00000000      0.00000000      0.00000000</v>
   <i type="logical" name="LNICSALL"> T  </i>
   <i type="logical" name="ORBITALMAG"> F  </i>
   <i type="logical" name="LMAGBLOCH"> F  </i>
   <i type="logical" name="LCHIMAG"> F  </i>
   <i type="logical" name="LGAUGE"> T  </i>
   <i type="int" name="MAGATOM">     0</i>
   <v name="MAGDIPOL">      0.00000000      0.00000000      0.00000000</v>
   <v name="AVECCONST">      0.00000000      0.00000000      0.00000000</v>
  </separator>
  <separator name="response functions" >
   <i type="logical" name="LALL_IN_ONE"> F  </i>
   <i type="int" name="IALL_IN_ONE">    -1</i>
   <i type="int" name="NBANDS_WAVE">    -1</i>
   <i type="logical" name="LFINITE_TEMPERATURE"> F  </i>
   <i type="logical" name="LADDER"> F  </i>
   <i type="logical" name="LRPAFORCE"> F  </i>
   <i type="logical" name="LFXC"> F  </i>
   <i type="logical" name="LHARTREE"> T  </i>
   <i type="int" name="IBSE">     0</i>
   <v type="int" name="KPOINT">    -1     0     0     0</v>
   <i type="logical" name="LTCTC"> F  </i>
   <i type="logical" name="LTCTE"> F  </i>
   <i type="logical" name="LTETE"> F  </i>
   <i type="logical" name="LTRIPLET"> F  </i>
   <i type="logical" name="LFXCEPS"> F  </i>
   <i type="logical" name="LFXHEG"> F  </i>
   <i type="int" name="NATURALO">     2</i>
   <i type="logical" name="LHOLEGF"> F  </i>
   <i type="logical" name="L2ORDER"> F  </i>
   <i type="logical" name="LDMP1"> F  </i>
   <i type="logical" name="LMP2LT"> F  </i>
   <i type="logical" name="LSMP2LT"> F  </i>
   <i type="logical" name="LGWLF"> F  </i>
   <i name="ENCUTGW">     -1.60000002</i>
   <i name="ENCUTGWSOFT">     -1.60000002</i>
   <i name="ENCUTLF">     -1.00000000</i>
   <i type="logical" name="ESF_SPLINES"> F  </i>
   <i name="ESF_CONV">      0.01000000</i>
   <i type="int" name="ESF_NINTER">    15</i>
   <i type="int" name="LMAXMP2">    -1</i>
   <i name="SCISSOR">      0.00000000</i>
   <i type="int" name="NOMEGA">     0</i>
   <i type="int" name="NOMEGAR">     0</i>
   <i type="int" name="NBANDSGW">    -1</i>
   <i type="int" name="NBANDSO">    -1</i>
   <i type="int" name="NBANDSV">    -1</i>
   <i type="int" name="NELMGW">     1</i>
   <i type="int" name="NELMHF">     1</i>
   <i type="int" name="DIM">     3</i>
   <i type="int" name="IESPILON">     4</i>
   <i type="int" name="ANTIRES">     0</i>
   <i name="OMEGAMAX">    -30.00000000</i>
   <i name="OMEGAMIN">    -30.00000000</i>
   <i name="OMEGATL">   -200.00000000</i>
   <i type="int" name="OMEGAGRID">     0</i>
   <i name="CSHIFT">     -0.10000000</i>
   <i type="logical" name="LSELFENERGY"> F  </i>
   <i type="logical" name="LSPECTRAL"> F  </i>
   <i type="logical" name="LSPECTRALGW"> F  </i>
   <i type="logical" name="LSINGLES"> F  </i>
   <i type="logical" name="LFERMIGW"> F  </i>
   <i type="logical" name="ODDONLYGW"> F  </i>
   <i type="logical" name="EVENONLYGW"> F  </i>
   <i type="int" name="NKREDLFX">     1</i>
   <i type="int" name="NKREDLFY">     1</i>
   <i type="int" name="NKREDLFZ">     1</i>
   <i type="int" name="MAXMEM">  2800</i>
   <i type="int" name="TELESCOPE">     0</i>
   <i type="int" name="NTAUPAR">    -1</i>
   <i type="int" name="NOMEGAPAR">    -1</i>
   <i name="DAMP_NEWTON">      0.80000001</i>
   <i name="LAMBDA">      1.00000000</i>
  </separator>
  <separator name="External order field" >
   <i name="OFIELD_KAPPA">      0.00000000</i>
   <v name="OFIELD_K">      0.00000000      0.00000000      0.00000000</v>
   <i name="OFIELD_Q6_NEAR">      0.00000000</i>
   <i name="OFIELD_Q6_FAR">      0.00000000</i>
   <i name="OFIELD_A">      0.00000000</i>
  </separator>
  <separator name="optional k-points parameters" >
   <i type="int" name="KPOINTS_OPT_MODE">     1</i>
   <i type="logical" name="LKPOINTS_OPT"> F  </i>
  </separator>
 </parameters>
 <atominfo>
  <atoms>       5 </atoms>
  <types>       3 </types>
  <array name="atoms" >
   <dimension dim="1">ion</dimension>
   <field type="string">element</field>
   <field type="int">atomtype</field>
   <set>
    <rc><c>Ba</c><c>   1</c></rc>
    <rc><c>Zr</c><c>   2</c></rc>
    <rc><c>O </c><c>   3</c></rc>
    <rc><c>O </c><c>   3</c></rc>
    <rc><c>O </c><c>   3</c></rc>
   </set>
  </array>
  <array name="atomtypes" >
   <dimension dim="1">type</dimension>
   <field type="int">atomspertype</field>
   <field type="string">element</field>
   <field>mass</field>
   <field>valence</field>
   <field type="string">pseudopotential</field>
   <set>
    <rc><c>   1</c><c>Ba</c><c>    137.32700000</c><c>     10.00000000</c><c>  PAW_PBE Ba_sv 06Sep2000               </c></rc>
    <rc><c>   1</c><c>Zr</c><c>     91.22400000</c><c>     12.00000000</c><c>  PAW_PBE Zr_sv 04Jan2005               </c></rc>
    <rc><c>   3</c><c>O </c><c>     16.00000000</c><c>      6.00000000</c><c>  PAW_PBE O 08Apr2002                   </c></rc>
   </set>
  </array>
 </atominfo>
 <structure name="initialpos" >
  <crystal>
   <varray name="basis" >
    <v>       4.19200000       0.00000000       0.00000000 </v>
    <v>       0.00000000       4.19200000       0.00000000 </v>
    <v>       0.00000000       0.00000000       4.19200000 </v>
   </varray>
   <i name="volume">     73.66544589 </i>
   <varray name="rec_basis" >
    <v>       0.23854962       0.00000000       0.00000000 </v>
    <v>       0.00000000       0.23854962       0.00000000 </v>
    <v>       0.00000000       0.00000000       0.23854962 </v>
   </varray>
  </crystal>
  <varray name="positions" >
   <v>       0.00000000       0.00000000       0.00000000 </v>
   <v>       0.50000000       0.50000000       0.50000000 </v>
   <v>       0.50000000       0.50000000       0.00000000 </v>
   <v>       0.50000000       0.00000000       0.50000000 </v>
   <v>       0.00000000       0.50000000       0.50000000 </v>
  </varray>
 </structure>
 <calculation>
  <scstep>
   <time name="dav">    0.11    1.07</time>
   <time name="total">    0.12    1.08</time>
   <energy>
    <i name="alphaZ">    240.34259355 </i>
    <i name="ewald">  -2693.37944630 </i>
    <i name="hartreedc">   -710.49736349 </i>
    <i name="XCdc">    161.74675365 </i>
    <i name="pawpsdc">   4638.84566200 </i>
    <i name="pawaedc">  -4625.63090460 </i>
    <i name="eentropy">     -0.00000000 </i>
    <i name="bandstr">   -335.01852475 </i>
    <i name="atom">   3281.85861458 </i>
    <i name="e_fr_energy">    -41.73261534 </i>
    <i name="e_wo_entrp">    -41.73261534 </i>
    <i name="e_0_energy">    -41.73261534 </i>
   </energy>
  </scstep>
  <scstep>
   <time name="dav">    0.03    0.03</time>
   <time name="total">    0.03    0.03</time>
   <energy>
    <i name="alphaZ">    240.34259355 </i>
    <i name="ewald">  -2693.37944630 </i>
    <i name="hartreedc">   -710.49830959 </i>
    <i name="XCdc">    161.74686005 </i>
    <i name="pawpsdc">   4638.91468294 </i>
    <i name="pawaedc">  -4625.70018966 </i>
    <i name="eentropy">     -0.00000000 </i>
    <i name="bandstr">   -335.01742084 </i>
    <i name="atom">   3281.85861458 </i>
    <i name="e_fr_energy">    -41.73261526 </i>
    <i name="e_wo_entrp">    -41.73261526 </i>
    <i name="e_0_energy">    -41.73261526 </i>
   </energy>
  </scstep>
  <structure>
   <crystal>
    <varray name="basis" >
     <v>       4.19200000       0.00000000       0.00000000 </v>
     <v>       0.00000000       4.19200000       0.00000000 </v>
     <v>       0.00000000       0.00000000       4.19200000 </v>
    </varray>
    <i name="volume">     73.66544589 </i>
    <varray name="rec_basis" >
     <v>       0.23854962       0.00000000       0.00000000 </v>
     <v>       0.00000000       0.23854962       0.00000000 </v>
     <v>       0.00000000       0.00000000       0.23854962 </v>
    </varray>
   </crystal>
   <varray name="positions" >
    <v>       0.00000000       0.00000000       0.00000000 </v>
    <v>       0.50000000       0.50000000       0.50000000 </v>
    <v>       0.50000000       0.50000000       0.00000000 </v>
    <v>       0.50000000       0.00000000       0.50000000 </v>
    <v>       0.00000000       0.50000000       0.50000000 </v>
   </varray>
  </structure>
  <varray name="forces" >
   <v>      -0.00000000      -0.00000000      -0.00000000 </v>
   <v>       0.00000000       0.00000000      -0.00000000 </v>
   <v>       0.00000000      -0.00000000      -0.00000000 </v>
   <v>      -0.00000000      -0.00000000       0.00000000 </v>
   <v>      -0.00000000       0.00000000       0.00000000 </v>
  </varray>
  <varray name="stress" >
   <v>       9.71825352      -0.00000000      -0.00000000 </v>
   <v>      -0.00000000       9.71825352      -0.00000000 </v>
   <v>       0.00000000       0.00000000       9.71825352 </v>
  </varray>
  <energy>
   <i name="e_fr_energy">    -41.73261526 </i>
   <i name="e_wo_entrp">    -41.73261526 </i>
   <i name="e_0_energy">    -41.73261526 </i>
  </energy>
  <time name="totalsc">    0.37    1.35</time>
  <eigenvalues>
   <array>
    <dimension dim="1">band</dimension>
    <dimension dim="2">kpoint</dimension>
    <dimension dim="3">spin</dimension>
    <field>eigene</field>
    <field>occ</field>
    <set>
     <set comment="spin 1">
      <set comment="kpoint 1">
       <r>  -43.2454    1.0000 </r>
       <r>  -21.5322    1.0000 </r>
       <r>  -21.4062    1.0000 </r>
       <r>  -21.4062    1.0000 </r>
       <r>  -21.4062    1.0000 </r>
       <r>  -12.5893    1.0000 </r>
       <r>  -12.3105    1.0000 </r>
       <r>  -12.3105    1.0000 </r>
       <r>   -6.6672    1.0000 </r>
       <r>   -6.6672    1.0000 </r>
       <r>   -6.6672    1.0000 </r>
       <r>    2.3269    1.0000 </r>
       <r>    2.3269    1.0000 </r>
       <r>    2.3269    1.0000 </r>
       <r>    2.7943    1.0000 </r>
       <r>    2.7943    1.0000 </r>
       <r>    2.7943    1.0000 </r>
       <r>    3.5529    1.0000 </r>
       <r>    3.5529    1.0000 </r>
       <r>    3.5529    1.0000 </r>
       <r>    6.9712    0.0000 </r>
       <r>    6.9712    0.0000 </r>
       <r>    6.9712    0.0000 </r>
       <r>    8.4411    0.0000 </r>
      </set>
      <set comment="kpoint 2">
       <r>  -43.2437    1.0000 </r>
       <r>  -21.6821    1.0000 </r>
       <r>  -21.4027    1.0000 </r>
       <r>  -21.4027    1.0000 </r>
       <r>  -21.3514    1.0000 </r>
       <r>  -12.6428    1.0000 </r>
       <r>  -12.2976    1.0000 </r>
       <r>  -11.8876    1.0000 </r>
       <r>   -6.6328    1.0000 </r>
       <r>   -6.6328    1.0000 </r>
       <r>   -6.5667    1.0000 </r>
       <r>    1.3307    1.0000 </r>
       <r>    2.1316    1.0000 </r>
       <r>    2.1316    1.0000 </r>
       <r>    2.3459    1.0000 </r>
       <r>    2.3459    1.0000 </r>
       <r>    2.4183    1.0000 </r>
       <r>    2.5010    1.0000 </r>
       <r>    3.4075    1.0000 </r>
       <r>    3.4075    1.0000 </r>
       <r>    7.1725    0.0000 </r>
       <r>    8.1729    0.0000 </r>
       <r>    8.1729    0.0000 </r>
       <r>    9.3046    0.0000 </r>
      </set>
      <set comment="kpoint 3">
       <r>  -43.2421    1.0000 </r>
       <r>  -21.8059    1.0000 </r>
       <r>  -21.3992    1.0000 </r>
       <r>  -21.3992    1.0000 </r>
       <r>  -21.3160    1.0000 </r>
       <r>  -12.7607    1.0000 </r>
       <r>  -12.2835    1.0000 </r>
       <r>  -11.3558    1.0000 </r>
       <r>   -6.5978    1.0000 </r>
       <r>   -6.5978    1.0000 </r>
       <r>   -6.4678    1.0000 </r>
       <r>    0.1298    1.0000 </r>
       <r>    1.8739    1.0000 </r>
       <r>    1.8739    1.0000 </r>
       <r>    1.9876    1.0000 </r>
       <r>    2.0492    1.0000 </r>
       <r>    2.0492    1.0000 </r>
       <r>    2.1054    1.0000 </r>
       <r>    3.3230    1.0000 </r>
       <r>    3.3230    1.0000 </r>
       <r>    7.4157    0.0000 </r>
       <r>    9.4889    0.0000 </r>
       <r>    9.4889    0.0000 </r>
       <r>   10.2219    0.0000 </r>
      </set>
      <set comment="kpoint 4">
       <r>  -43.2421    1.0000 </r>
       <r>  -21.6709    1.0000 </r>
       <r>  -21.5304    1.0000 </r>
       <r>  -21.3994    1.0000 </r>
       <r>  -21.3364    1.0000 </r>
       <r>  -12.5301    1.0000 </r>
       <r>  -11.9594    1.0000 </r>
       <r>  -11.9096    1.0000 </r>
       <r>   -6.7149    1.0000 </r>
       <r>   -6.5866    1.0000 </r>
       <r>   -6.5289    1.0000 </r>
       <r>    1.0557    1.0000 </r>
       <r>    1.3041    1.0000 </r>
       <r>    1.4031    1.0000 </r>
       <r>    1.9209    1.0000 </r>
       <r>    1.9613    1.0000 </r>
       <r>    2.3784    1.0000 </r>
       <r>    2.7977    1.0000 </r>
       <r>    3.2053    1.0000 </r>
       <r>    3.2528    1.0000 </r>
       <r>    8.2813    0.0000 </r>
       <r>    8.3223    0.0000 </r>
       <r>    8.6055    0.0000 </r>
       <r>   10.1794    0.0000 </r>
      </set>
      <set comment="kpoint 5">
       <r>  -43.2404    1.0000 </r>
       <r>  -21.7411    1.0000 </r>
       <r>  -21.5274    1.0000 </r>
       <r>  -21.3960    1.0000 </r>
       <r>  -21.3636    1.0000 </r>
       <r>  -12.5371    1.0000 </r>
       <r>  -11.9652    1.0000 </r>
       <r>  -11.4207    1.0000 </r>
       <r>   -6.6764    1.0000 </r>
       <r>   -6.6101    1.0000 </r>
       <r>   -6.5392    1.0000 </r>
       <r>    0.0986    1.0000 </r>
       <r>    0.6105    1.0000 </r>
       <r>    1.2714    1.0000 </r>
       <r>    1.6291    1.0000 </r>
       <r>    1.7017    1.0000 </r>
       <r>    2.4672    1.0000 </r>
       <r>    2.6683    1.0000 </r>
       <r>    3.1052    1.0000 </r>
       <r>    3.3194    1.0000 </r>
       <r>    8.4527    0.0000 </r>
       <r>    9.4633    0.0000 </r>
       <r>    9.6612    0.0000 </r>
       <r>   10.9203    0.0000 </r>
      </set>
      <set comment="kpoint 6">
       <r>  -43.2388    1.0000 </r>
       <r>  -21.6488    1.0000 </r>
       <r>  -21.6488    1.0000 </r>
       <r>  -21.4389    1.0000 </r>
       <r>  -21.3928    1.0000 </r>
       <r>  -12.4338    1.0000 </r>
       <r>  -11.4884    1.0000 </r>
       <r>  -11.4884    1.0000 </r>
       <r>   -6.7435    1.0000 </r>
       <r>   -6.7435    1.0000 </r>
       <r>   -6.4785    1.0000 </r>
       <r>    0.0210    1.0000 </r>
       <r>    0.0313    1.0000 </r>
       <r>    0.1274    1.0000 </r>
       <r>    1.3804    1.0000 </r>
       <r>    1.3804    1.0000 </r>
       <r>    2.8489    1.0000 </r>
       <r>    2.8489    1.0000 </r>
       <r>    2.9914    1.0000 </r>
       <r>    3.6999    1.0000 </r>
       <r>    9.4588    0.0000 </r>
       <r>    9.4588    0.0000 </r>
       <r>   10.2377    0.0000 </r>
       <r>   10.2815    0.0000 </r>
      </set>
      <set comment="kpoint 7">
       <r>  -43.2404    1.0000 </r>
       <r>  -21.6405    1.0000 </r>
       <r>  -21.5263    1.0000 </r>
       <r>  -21.5263    1.0000 </r>
       <r>  -21.3449    1.0000 </r>
       <r>  -12.1523    1.0000 </r>
       <r>  -11.8790    1.0000 </r>
       <r>  -11.8790    1.0000 </r>
       <r>   -6.8005    1.0000 </r>
       <r>   -6.8005    1.0000 </r>
       <r>   -6.4616    1.0000 </r>
       <r>    0.7831    1.0000 </r>
       <r>    1.2940    1.0000 </r>
       <r>    1.2940    1.0000 </r>
       <r>    1.5286    1.0000 </r>
       <r>    1.5286    1.0000 </r>
       <r>    1.7339    1.0000 </r>
       <r>    3.0632    1.0000 </r>
       <r>    3.0632    1.0000 </r>
       <r>    3.2591    1.0000 </r>
       <r>    8.7639    0.0000 </r>
       <r>    8.7639    0.0000 </r>
       <r>    9.0728    0.0000 </r>
       <r>   10.8077    0.0000 </r>
      </set>
      <set comment="kpoint 8">
       <r>  -43.2387    1.0000 </r>
       <r>  -21.6976    1.0000 </r>
       <r>  -21.5247    1.0000 </r>
       <r>  -21.5221    1.0000 </r>
       <r>  -21.3873    1.0000 </r>
       <r>  -12.1061    1.0000 </r>
       <r>  -11.8473    1.0000 </r>
       <r>  -11.4255    1.0000 </r>
       <r>   -6.8871    1.0000 </r>
       <r>   -6.7847    1.0000 </r>
       <r>   -6.6232    1.0000 </r>
       <r>    0.0912    1.0000 </r>
       <r>    0.6905    1.0000 </r>
       <r>    1.2596    1.0000 </r>
       <r>    1.2830    1.0000 </r>
       <r>    1.3235    1.0000 </r>
       <r>    1.7871    1.0000 </r>
       <r>    2.9501    1.0000 </r>
       <r>    3.2188    1.0000 </r>
       <r>    3.3495    1.0000 </r>
       <r>    9.0625    0.0000 </r>
       <r>    9.6712    0.0000 </r>
       <r>    9.8637    0.0000 </r>
       <r>   11.0037    0.0000 </r>
      </set>
      <set comment="kpoint 9">
       <r>  -43.2371    1.0000 </r>
       <r>  -21.6439    1.0000 </r>
       <r>  -21.6439    1.0000 </r>
       <r>  -21.5195    1.0000 </r>
       <r>  -21.4210    1.0000 </r>
       <r>  -11.9275    1.0000 </r>
       <r>  -11.4336    1.0000 </r>
       <r>  -11.4336    1.0000 </r>
       <r>   -6.9515    1.0000 </r>
       <r>   -6.9515    1.0000 </r>
       <r>   -6.8390    1.0000 </r>
       <r>    0.0392    1.0000 </r>
       <r>    0.1613    1.0000 </r>
       <r>    0.6494    1.0000 </r>
       <r>    1.3127    1.0000 </r>
       <r>    1.3127    1.0000 </r>
       <r>    1.4537    1.0000 </r>
       <r>    3.2879    1.0000 </r>
       <r>    3.2879    1.0000 </r>
       <r>    3.7386    1.0000 </r>
       <r>    9.7858    0.0000 </r>
       <r>    9.7858    0.0000 </r>
       <r>   10.0666    0.0000 </r>
       <r>   10.5642    0.0000 </r>
      </set>
      <set comment="kpoint 10">
       <r>  -43.2354    1.0000 </r>
       <r>  -21.6392    1.0000 </r>
       <r>  -21.6392    1.0000 </r>
       <r>  -21.6392    1.0000 </r>
       <r>  -21.4029    1.0000 </r>
       <r>  -11.3751    1.0000 </r>
       <r>  -11.3751    1.0000 </r>
       <r>  -11.3751    1.0000 </r>
       <r>   -7.1540    1.0000 </r>
       <r>   -7.1540    1.0000 </r>
       <r>   -7.1540    1.0000 </r>
       <r>    0.0480    1.0000 </r>
       <r>    0.0480    1.0000 </r>
       <r>    0.3020    1.0000 </r>
       <r>    1.2422    1.0000 </r>
       <r>    1.2422    1.0000 </r>
       <r>    1.2422    1.0000 </r>
       <r>    3.7793    1.0000 </r>
       <r>    3.7793    1.0000 </r>
       <r>    3.7793    1.0000 </r>
       <r>    9.7665    0.0000 </r>
       <r>    9.7665    0.0000 </r>
       <r>    9.7665    0.0000 </r>
       <r>   10.7805    0.0000 </r>
      </set>
     </set>
    </set>
   </array>
  </eigenvalues>
  <separator name="orbital magnetization" >
   <v name="MAGDIPOLOUT">      0.00000000      0.00000000      0.00000000</v>
  </separator>
  <dos>
   <i name="efermi">      4.01912221 </i>
   <total>
    <array>
     <dimension dim="1">gridpoints</dimension>
     <dimension dim="2">spin</dimension>
     <field>energy</field>
     <field>total</field>
     <field>integrated</field>
     <set>
      <set comment="spin 1">
       <r>   -45.9579     0.0000     0.0000 </r>
       <r>   -45.7590     0.0000     0.0000 </r>
       <r>   -45.5600     0.0000     0.0000 </r>
       <r>   -45.3611     0.0000     0.0000 </r>
       <r>   -45.1622     0.0000     0.0000 </r>
       <r>   -44.9633     0.0000     0.0000 </r>
       <r>   -44.7644     0.0000     0.0000 </r>
       <r>   -44.5655     0.0000     0.0000 </r>
       <r>   -44.3666     0.0000     0.0000 </r>
       <r>   -44.1677     0.0000     0.0000 </r>
       <r>   -43.9687     0.0000     0.0000 </r>
       <r>   -43.7698     0.0000     0.0000 </r>
       <r>   -43.5709     0.0000     0.0000 </r>
       <r>   -43.3720     0.0010     0.0002 </r>
       <r>   -43.1731     9.7656     1.9427 </r>
       <r>   -42.9742     0.2880     2.0000 </r>
       <r>   -42.7753     0.0000     2.0000 </r>
       <r>   -42.5763     0.0000     2.0000 </r>
       <r>   -42.3774     0.0000     2.0000 </r>
       <r>   -42.1785     0.0000     2.0000 </r>
       <r>   -41.9796     0.0000     2.0000 </r>
       <r>   -41.7807     0.0000     2.0000 </r>
       <r>   -41.5818     0.0000     2.0000 </r>
       <r>   -41.3829     0.0000     2.0000 </r>
       <r>   -41.1840     0.0000     2.0000 </r>
       <r>   -40.9850     0.0000     2.0000 </r>
       <r>   -40.7861     0.0000     2.0000 </r>
       <r>   -40.5872     0.0000     2.0000 </r>
       <r>   -40.3883     0.0000     2.0000 </r>
       <r>   -40.1894     0.0000     2.0000 </r>
       <r>   -39.9905     0.0000     2.0000 </r>
       <r>   -39.7916     0.0000     2.0000 </r>
       <r>   -39.5926     0.0000     2.0000 </r>
       <r>   -39.3937     0.0000     2.0000 </r>
       <r>   -39.1948     0.0000     2.0000 </r>
       <r>   -38.9959     0.0000     2.0000 </r>
       <r>   -38.7970     0.0000     2.0000 </r>
       <r>   -38.5981     0.0000     2.0000 </r>
       <r>   -38.3992     0.0000     2.0000 </r>
       <r>   -38.2003     0.0000     2.0000 </r>
       <r>   -38.0013     0.0000     2.0000 </r>
       <r>   -37.8024     0.0000     2.0000 </r>
       <r>   -37.6035     0.0000     2.0000 </r>
       <r>   -37.4046     0.0000     2.0000 </r>
       <r>   -37.2057     0.0000     2.0000 </r>
       <r>   -37.0068     0.0000     2.0000 </r>
       <r>   -36.8079     0.0000     2.0000 </r>
       <r>   -36.6089     0.0000     2.0000 </r>
       <r>   -36.4100     0.0000     2.0000 </r>
       <r>   -36.2111     0.0000     2.0000 </r>
       <r>   -36.0122     0.0000     2.0000 </r>
       <r>   -35.8133     0.0000     2.0000 </r>
       <r>   -35.6144     0.0000     2.0000 </r>
       <r>   -35.4155     0.0000     2.0000 </r>
       <r>   -35.2166     0.0000     2.0000 </r>
       <r>   -35.0176     0.0000     2.0000 </r>
       <r>   -34.8187     0.0000     2.0000 </r>
       <r>   -34.6198     0.0000     2.0000 </r>
       <r>   -34.4209     0.0000     2.0000 </r>
       <r>   -34.2220     0.0000     2.0000 </r>
       <r>   -34.0231     0.0000     2.0000 </r>
       <r>   -33.8242     0.0000     2.0000 </r>
       <r>   -33.6252     0.0000     2.0000 </r>
       <r>   -33.4263     0.0000     2.0000 </r>
       <r>   -33.2274     0.0000     2.0000 </r>
       <r>   -33.0285     0.0000     2.0000 </r>
       <r>   -32.8296     0.0000     2.0000 </r>
       <r>   -32.6307     0.0000     2.0000 </r>
       <r>   -32.4318     0.0000     2.0000 </r>
       <r>   -32.2328     0.0000     2.0000 </r>
       <r>   -32.0339     0.0000     2.0000 </r>
       <r>   -31.8350     0.0000     2.0000 </r>
       <r>   -31.6361     0.0000     2.0000 </r>
       <r>   -31.4372     0.0000     2.0000 </r>
       <r>   -31.2383     0.0000     2.0000 </r>
       <r>   -31.0394     0.0000     2.0000 </r>
       <r>   -30.8405     0.0000     2.0000 </r>
       <r>   -30.6415     0.0000     2.0000 </r>
       <r>   -30.4426     0.0000     2.0000 </r>
       <r>   -30.2437     0.0000     2.0000 </r>
       <r>   -30.0448     0.0000     2.0000 </r>
       <r>   -29.8459     0.0000     2.0000 </r>
       <r>   -29.6470     0.0000     2.0000 </r>
       <r>   -29.4481     0.0000     2.0000 </r>
       <r>   -29.2491     0.0000     2.0000 </r>
       <r>   -29.0502     0.0000     2.0000 </r>
       <r>   -28.8513     0.0000     2.0000 </r>
       <r>   -28.6524     0.0000     2.0000 </r>
       <r>   -28.4535     0.0000     2.0000 </r>
       <r>   -28.2546     0.0000     2.0000 </r>
       <r>   -28.0557     0.0000     2.0000 </r>
       <r>   -27.8568     0.0000     2.0000 </r>
       <r>   -27.6578     0.0000     2.0000 </r>
       <r>   -27.4589     0.0000     2.0000 </r>
       <r>   -27.2600     0.0000     2.0000 </r>
       <r>   -27.0611     0.0000     2.0000 </r>
       <r>   -26.8622     0.0000     2.0000 </r>
       <r>   -26.6633     0.0000     2.0000 </r>
       <r>   -26.4644     0.0000     2.0000 </r>
       <r>   -26.2654     0.0000     2.0000 </r>
       <r>   -26.0665     0.0000     2.0000 </r>
       <r>   -25.8676     0.0000     2.0000 </r>
       <r>   -25.6687     0.0000     2.0000 </r>
       <r>   -25.4698     0.0000     2.0000 </r>
       <r>   -25.2709     0.0000     2.0000 </r>
       <r>   -25.0720     0.0000     2.0000 </r>
       <r>   -24.8731     0.0000     2.0000 </r>
       <r>   -24.6741     0.0000     2.0000 </r>
       <r>   -24.4752     0.0000     2.0000 </r>
       <r>   -24.2763     0.0000     2.0000 </r>
       <r>   -24.0774     0.0000     2.0000 </r>
       <r>   -23.8785     0.0000     2.0000 </r>
       <r>   -23.6796     0.0000     2.0000 </r>
       <r>   -23.4807     0.0000     2.0000 </r>
       <r>   -23.2817     0.0000     2.0000 </r>
       <r>   -23.0828     0.0000     2.0000 </r>
       <r>   -22.8839     0.0000     2.0000 </r>
       <r>   -22.6850     0.0000     2.0000 </r>
       <r>   -22.4861     0.0000     2.0000 </r>
       <r>   -22.2872     0.0000     2.0000 </r>
       <r>   -22.0883     0.0000     2.0000 </r>
       <r>   -21.8894     0.0043     2.0009 </r>
       <r>   -21.6904     4.6573     2.9273 </r>
       <r>   -21.4915    16.3398     6.1775 </r>
       <r>   -21.2926    18.7020     9.8975 </r>
       <r>   -21.0937     0.5151    10.0000 </r>
       <r>   -20.8948     0.0000    10.0000 </r>
       <r>   -20.6959     0.0000    10.0000 </r>
       <r>   -20.4970     0.0000    10.0000 </r>
       <r>   -20.2980     0.0000    10.0000 </r>
       <r>   -20.0991     0.0000    10.0000 </r>
       <r>   -19.9002     0.0000    10.0000 </r>
       <r>   -19.7013     0.0000    10.0000 </r>
       <r>   -19.5024     0.0000    10.0000 </r>
       <r>   -19.3035     0.0000    10.0000 </r>
       <r>   -19.1046     0.0000    10.0000 </r>
       <r>   -18.9056     0.0000    10.0000 </r>
       <r>   -18.7067     0.0000    10.0000 </r>
       <r>   -18.5078     0.0000    10.0000 </r>
       <r>   -18.3089     0.0000    10.0000 </r>
       <r>   -18.1100     0.0000    10.0000 </r>
       <r>   -17.9111     0.0000    10.0000 </r>
       <r>   -17.7122     0.0000    10.0000 </r>
       <r>   -17.5133     0.0000    10.0000 </r>
       <r>   -17.3143     0.0000    10.0000 </r>
       <r>   -17.1154     0.0000    10.0000 </r>
       <r>   -16.9165     0.0000    10.0000 </r>
       <r>   -16.7176     0.0000    10.0000 </r>
       <r>   -16.5187     0.0000    10.0000 </r>
       <r>   -16.3198     0.0000    10.0000 </r>
       <r>   -16.1209     0.0000    10.0000 </r>
       <r>   -15.9219     0.0000    10.0000 </r>
       <r>   -15.7230     0.0000    10.0000 </r>
       <r>   -15.5241     0.0000    10.0000 </r>
       <r>   -15.3252     0.0000    10.0000 </r>
       <r>   -15.1263     0.0000    10.0000 </r>
       <r>   -14.9274     0.0000    10.0000 </r>
       <r>   -14.7285     0.0000    10.0000 </r>
       <r>   -14.5296     0.0000    10.0000 </r>
       <r>   -14.3306     0.0000    10.0000 </r>
       <r>   -14.1317     0.0000    10.0000 </r>
       <r>   -13.9328     0.0000    10.0000 </r>
       <r>   -13.7339     0.0000    10.0000 </r>
       <r>   -13.5350     0.0000    10.0000 </r>
       <r>   -13.3361     0.0000    10.0000 </r>
       <r>   -13.1372     0.0000    10.0000 </r>
       <r>   -12.9382     0.0000    10.0000 </r>
       <r>   -12.7393     0.3456    10.0687 </r>
       <r>   -12.5404     2.8090    10.6275 </r>
       <r>   -12.3415     2.8405    11.1925 </r>
       <r>   -12.1426     2.5942    11.7085 </r>
       <r>   -11.9437     5.4990    12.8024 </r>
       <r>   -11.7448     8.5308    14.4993 </r>
       <r>   -11.5459     0.0552    14.5102 </r>
       <r>   -11.3469     7.1270    15.9279 </r>
       <r>   -11.1480     0.3625    16.0000 </r>
       <r>   -10.9491     0.0000    16.0000 </r>
       <r>   -10.7502     0.0000    16.0000 </r>
       <r>   -10.5513     0.0000    16.0000 </r>
       <r>   -10.3524     0.0000    16.0000 </r>
       <r>   -10.1535     0.0000    16.0000 </r>
       <r>    -9.9545     0.0000    16.0000 </r>
       <r>    -9.7556     0.0000    16.0000 </r>
       <r>    -9.5567     0.0000    16.0000 </r>
       <r>    -9.3578     0.0000    16.0000 </r>
       <r>    -9.1589     0.0000    16.0000 </r>
       <r>    -8.9600     0.0000    16.0000 </r>
       <r>    -8.7611     0.0000    16.0000 </r>
       <r>    -8.5622     0.0000    16.0000 </r>
       <r>    -8.3632     0.0000    16.0000 </r>
       <r>    -8.1643     0.0000    16.0000 </r>
       <r>    -7.9654     0.0000    16.0000 </r>
       <r>    -7.7665     0.0000    16.0000 </r>
       <r>    -7.5676     0.0000    16.0000 </r>
       <r>    -7.3687     0.0000    16.0000 </r>
       <r>    -7.1698     0.1547    16.0308 </r>
       <r>    -6.9708     0.8850    16.2068 </r>
       <r>    -6.7719     7.6177    17.7221 </r>
       <r>    -6.5730    14.1182    20.5304 </r>
       <r>    -6.3741     7.3772    21.9978 </r>
       <r>    -6.1752     0.0111    22.0000 </r>
       <r>    -5.9763     0.0000    22.0000 </r>
       <r>    -5.7774     0.0000    22.0000 </r>
       <r>    -5.5785     0.0000    22.0000 </r>
       <r>    -5.3795     0.0000    22.0000 </r>
       <r>    -5.1806     0.0000    22.0000 </r>
       <r>    -4.9817     0.0000    22.0000 </r>
       <r>    -4.7828     0.0000    22.0000 </r>
       <r>    -4.5839     0.0000    22.0000 </r>
       <r>    -4.3850     0.0000    22.0000 </r>
       <r>    -4.1861     0.0000    22.0000 </r>
       <r>    -3.9871     0.0000    22.0000 </r>
       <r>    -3.7882     0.0000    22.0000 </r>
       <r>    -3.5893     0.0000    22.0000 </r>
       <r>    -3.3904     0.0000    22.0000 </r>
       <r>    -3.1915     0.0000    22.0000 </r>
       <r>    -2.9926     0.0000    22.0000 </r>
       <r>    -2.7937     0.0000    22.0000 </r>
       <r>    -2.5947     0.0000    22.0000 </r>
       <r>    -2.3958     0.0000    22.0000 </r>
       <r>    -2.1969     0.0000    22.0000 </r>
       <r>    -1.9980     0.0000    22.0000 </r>
       <r>    -1.7991     0.0000    22.0000 </r>
       <r>    -1.6002     0.0000    22.0000 </r>
       <r>    -1.4013     0.0000    22.0000 </r>
       <r>    -1.2024     0.0000    22.0000 </r>
       <r>    -1.0034     0.0000    22.0000 </r>
       <r>    -0.8045     0.0000    22.0000 </r>
       <r>    -0.6056     0.0000    22.0000 </r>
       <r>    -0.4067     0.0000    22.0000 </r>
       <r>    -0.2078     0.0000    22.0000 </r>
       <r>    -0.0089     0.2598    22.0517 </r>
       <r>     0.1900     7.3462    23.5130 </r>
       <r>     0.3890     0.4051    23.5935 </r>
       <r>     0.5879     0.5344    23.6998 </r>
       <r>     0.7868     4.8542    24.6654 </r>
       <r>     0.9857     0.6275    24.7902 </r>
       <r>     1.1846     1.9181    25.1718 </r>
       <r>     1.3835    16.0008    28.3545 </r>
       <r>     1.5824     5.4604    29.4407 </r>
       <r>     1.7813     5.7014    30.5748 </r>
       <r>     1.9803     5.4823    31.6653 </r>
       <r>     2.1792     4.0199    32.4649 </r>
       <r>     2.3781     3.2250    33.1064 </r>
       <r>     2.5770     4.9564    34.0923 </r>
       <r>     2.7759     2.5578    34.6011 </r>
       <r>     2.9748     4.2293    35.4423 </r>
       <r>     3.1737     5.6851    36.5732 </r>
       <r>     3.3727    12.5920    39.0779 </r>
       <r>     3.5716     2.6097    39.5970 </r>
       <r>     3.7705     1.5601    39.9073 </r>
       <r>     3.9694     0.4660    40.0000 </r>
       <r>     4.1683     0.0000    40.0000 </r>
       <r>     4.3672     0.0000    40.0000 </r>
       <r>     4.5661     0.0000    40.0000 </r>
       <r>     4.7650     0.0000    40.0000 </r>
       <r>     4.9640     0.0000    40.0000 </r>
       <r>     5.1629     0.0000    40.0000 </r>
       <r>     5.3618     0.0000    40.0000 </r>
       <r>     5.5607     0.0000    40.0000 </r>
       <r>     5.7596     0.0000    40.0000 </r>
       <r>     5.9585     0.0000    40.0000 </r>
       <r>     6.1574     0.0000    40.0000 </r>
       <r>     6.3564     0.0000    40.0000 </r>
       <r>     6.5553     0.0000    40.0000 </r>
       <r>     6.7542     0.0000    40.0000 </r>
       <r>     6.9531     0.1434    40.0285 </r>
       <r>     7.1520     0.5927    40.1464 </r>
       <r>     7.3509     0.6936    40.2844 </r>
       <r>     7.5498     0.4555    40.3750 </r>
       <r>     7.7487     0.0000    40.3750 </r>
       <r>     7.9477     0.0000    40.3750 </r>
       <r>     8.1466     0.4304    40.4606 </r>
       <r>     8.3455     4.6802    41.3916 </r>
       <r>     8.5444     2.6575    41.9202 </r>
       <r>     8.7433     2.5199    42.4214 </r>
       <r>     8.9422     1.8098    42.7814 </r>
       <r>     9.1411     3.0831    43.3947 </r>
       <r>     9.3401     0.8531    43.5644 </r>
       <r>     9.5390     3.8036    44.3210 </r>
       <r>     9.7379     4.0645    45.1294 </r>
       <r>     9.9368     4.0259    45.9302 </r>
       <r>    10.1357     1.1642    46.1618 </r>
       <r>    10.3346     3.0809    46.7747 </r>
       <r>    10.5335     0.2150    46.8174 </r>
       <r>    10.7325     0.7953    46.9756 </r>
       <r>    10.9314     2.5925    47.4913 </r>
       <r>    11.1303     2.5570    47.9999 </r>
       <r>    11.3292     0.0003    48.0000 </r>
       <r>    11.5281     0.0000    48.0000 </r>
       <r>    11.7270     0.0000    48.0000 </r>
       <r>    11.9259     0.0000    48.0000 </r>
       <r>    12.1248     0.0000    48.0000 </r>
       <r>    12.3238     0.0000    48.0000 </r>
       <r>    12.5227     0.0000    48.0000 </r>
       <r>    12.7216     0.0000    48.0000 </r>
       <r>    12.9205     0.0000    48.0000 </r>
       <r>    13.1194     0.0000    48.0000 </r>
       <r>    13.3183     0.0000    48.0000 </r>
       <r>    13.5172     0.0000    48.0000 </r>
       <r>    13.7162     0.0000    48.0000 </r>
      </set>
     </set>
    </array>
   </total>
   <partial>
    <array>
     <dimension dim="1">gridpoints</dimension>
     <dimension dim="2">spin</dimension>
     <dimension dim="3">ion</dimension>
     <field>energy</field>
     <field>    s</field>
     <field>   py</field>
     <field>   pz</field>
     <field>   px</field>
     <field>  dxy</field>
     <field>  dyz</field>
     <field>  dz2</field>
     <field>  dxz</field>
     <field>x2-y2</field>
     <set>
      <set comment="ion 1">
       <set comment="spin 1">
        <r>   -45.9579     0.0000     0.0000     0.0000     0.0000     0.0000     0.0000     0.0000     0.0000     0.0000 </r>
        <r>   -45.7590     0.0000     0.0000     0.0000     0.0000     0.0000     0.0000     0.0000     0.0000     0.0000 </r>
        <r>   -45.5600     0.0000     0.0000     0.0000     0.0000     0.0000     0.0000     0.0000     0.0000     0.0000 </r>
        <r>   -45.3611     0.0000     0.0000     0.0000     0.0000     0.0000     0.0000     0.0000     0.0000     0.0000 </r>
        <r>   -45.1622     0.0000     0.0000     0.0000     0.0000     0.0000     0.0000     0.0000     0.0000     0.0000 </r>
        <r>   -44.9633     0.0000     0.0000     0.0000     0.0000     0.0000     0.0000     0.0000     0.0000     0.0000 </r>
        <r>   -44.7644     0.0000     0.0000     0.0000     0.0000     0.0000     0.0000     0.0000     0.0000     0.0000 </r>
        <r>   -44.5655     0.0000     0.0000     0.0000     0.0000     0.0000     0.0000     0.0000     0.0000     0.0000 </r>
        <r>   -44.3666     0.0000     0.0000     0.0000     0.0000     0.0000     0.0000     0.0000     0.0000     0.0000 </r>
        <r>   -44.1677     0.0000     0.0000     0.0000     0.0000     0.0000     0.0000     0.0000     0.0000     0.0000 </r>
        <r>   -43.9687     0.0000     0.0000     0.0000     0.0000     0.0000     0.0000     0.0000     0.0000     0.0000 </r>
        <r>   -43.7698     0.0000     0.0000     0.0000     0.0000     0.0000     0.0000     0.0000     0.0000     0.0000 </r>
        <r>   -43.5709     0.0000     0.0000     0.0000     0.0000     0.0000     0.0000     0.0000     0.0000     0.0000 </r>
        <r>   -43.3720     0.0000     0.0000     0.0000     0.0000     0.0000     0.0000     0.0000     0.0000     0.0000 </r>
        <r>   -43.1731     0.0000     0.0000     0.0000     0.0000     0.0000     0.0000     0.0000     0.0000     0.0000 </r>
        <r>   -42.9742     0.0000     0.0000     0.0000     0.0000     0.0000     0.0000     0.0000     0.0000     0.0000 </r>
        <r>   -42.7753     0.0000     0.0000     0.0000     0.0000     0.0000     0.0000     0.0000     0.0000     0.0000 </r>
        <r>   -42.5763     0.0000     0.0000     0.0000     0.0000     0.0000     0.0000     0.0000     0.0000     0.0000 </r>
        <r>   -42.3774     0.0000     0.0000     0.0000     0.0000     0.0000     0.0000     0.0000     0.0000     0.0000 </r>
        <r>   -42.1785     0.0000     0.0000     0.0000     0.0000     0.0000     0.0000     0.0000     0.0000     0.0000 </r>
        <r>   -41.9796     0.0000     0.0000     0.0000     0.0000     0.0000     0.0000     0.0000     0.0000     0.0000 </r>
        <r>   -41.7807     0.0000     0.0000     0.0000     0.0000     0.0000     0.0000     0.0000     0.0000     0.0000 </r>
        <r>   -41.5818     0.0000     0.0000     0.0000     0.0000     0.0000     0.0000     0.0000     0.0000     0.0000 </r>
        <r>   -41.3829     0.0000     0.0000     0.0000     0.0000     0.0000     0.0000     0.0000     0.0000     0.0000 </r>
        <r>   -41.1840     0.0000     0.0000     0.0000     0.0000     0.0000     0.0000     0.0000     0.0000     0.0000 </r>
        <r>   -40.9850     0.0000     0.0000     0.0000     0.0000     0.0000     0.0000     0.0000     0.0000     0.0000 </r>
        <r>   -40.7861     0.0000     0.0000     0.0000     0.0000     0.0000     0.0000     0.0000     0.0000     0.0000 </r>
        <r>   -40.5872     0.0000     0.0000     0.0000     0.0000     0.0000     0.0000     0.0000     0.0000     0.0000 </r>
        <r>   -40.3883     0.0000     0.0000     0.0000     0.0000     0.0000     0.0000     0.0000     0.0000     0.0000 </r>
        <r>   -40.1894     0.0000     0.0000     0.0000     0.0000     0.0000     0.0000     0.0000     0.0000     0.0000 </r>
        <r>   -39.9905     0.0000     0.0000     0.0000     0.0000     0.0000     0.0000     0.0000     0.0000     0.0000 </r>
        <r>   -39.7916     0.0000     0.0000     0.0000     0.0000     0.0000     0.0000     0.0000     0.0000     0.0000 </r>
        <r>   -39.5926     0.0000     0.0000     0.0000     0.0000     0.0000     0.0000     0.0000     0.0000     0.0000 </r>
        <r>   -39.3937     0.0000     0.0000     0.0000     0.0000     0.0000     0.0000     0.0000     0.0000     0.0000 </r>
        <r>   -39.1948     0.0000     0.0000     0.0000     0.0000     0.0000     0.0000     0.0000     0.0000     0.0000 </r>
        <r>   -38.9959     0.0000     0.0000     0.0000     0.0000     0.0000     0.0000     0.0000     0.0000     0.0000 </r>
        <r>   -38.7970     0.0000     0.0000     0.0000     0.0000     0.0000     0.0000     0.0000     0.0000     0.0000 </r>
        <r>   -38.5981     0.0000     0.0000     0.0000     0.0000     0.0000     0.0000     0.0000     0.0000     0.0000 </r>
        <r>   -38.3992     0.0000     0.0000     0.0000     0.0000     0.0000     0.0000     0.0000     0.0000     0.0000 </r>
        <r>   -38.2003     0.0000     0.0000     0.0000     0.0000     0.0000     0.0000     0.0000     0.0000     0.0000 </r>
        <r>   -38.0013     0.0000     0.0000     0.0000     0.0000     0.0000     0.0000     0.0000     0.0000     0.0000 </r>
        <r>   -37.8024     0.0000     0.0000     0.0000     0.0000     0.0000     0.0000     0.0000     0.0000     0.0000 </r>
        <r>   -37.6035     0.0000     0.0000     0.0000     0.0000     0.0000     0.0000     0.0000     0.0000     0.0000 </r>
        <r>   -37.4046     0.0000     0.0000     0.0000     0.0000     0.0000     0.0000     0.0000     0.0000     0.0000 </r>
        <r>   -37.2057     0.0000     0.0000     0.0000     0.0000     0.0000     0.0000     0.0000     0.0000     0.0000 </r>
        <r>   -37.0068     0.0000     0.0000     0.0000     0.0000     0.0000     0.0000     0.0000     0.0000     0.0000 </r>
        <r>   -36.8079     0.0000     0.0000     0.0000     0.0000     0.0000     0.0000     0.0000     0.0000     0.0000 </r>
        <r>   -36.6089     0.0000     0.0000     0.0000     0.0000     0.0000     0.0000     0.0000     0.0000     0.0000 </r>
        <r>   -36.4100     0.0000     0.0000     0.0000     0.0000     0.0000     0.0000     0.0000     0.0000     0.0000 </r>
        <r>   -36.2111     0.0000     0.0000     0.0000     0.0000     0.0000     0.0000     0.0000     0.0000     0.0000 </r>
        <r>   -36.0122     0.0000     0.0000     0.0000     0.0000     0.0000     0.0000     0.0000     0.0000     0.0000 </r>
        <r>   -35.8133     0.0000     0.0000     0.0000     0.0000     0.0000     0.0000     0.0000     0.0000     0.0000 </r>
        <r>   -35.6144     0.0000     0.0000     0.0000     0.0000     0.0000     0.0000     0.0000     0.0000     0.0000 </r>
        <r>   -35.4155     0.0000     0.0000     0.0000     0.0000     0.0000     0.0000     0.0000     0.0000     0.0000 </r>
        <r>   -35.2166     0.0000     0.0000     0.0000     0.0000     0.0000     0.0000     0.0000     0.0000     0.0000 </r>
        <r>   -35.0176     0.0000     0.0000     0.0000     0.0000     0.0000     0.0000     0.0000     0.0000     0.0000 </r>
        <r>   -34.8187     0.0000     0.0000     0.0000     0.0000     0.0000     0.0000     0.0000     0.0000     0.0000 </r>
        <r>   -34.6198     0.0000     0.0000     0.0000     0.0000     0.0000     0.0000     0.0000     0.0000     0.0000 </r>
        <r>   -34.4209     0.0000     0.0000     0.0000     0.0000     0.0000     0.0000     0.0000     0.0000     0.0000 </r>
        <r>   -34.2220     0.0000     0.0000     0.0000     0.0000     0.0000     0.0000     0.0000     0.0000     0.0000 </r>
        <r>   -34.0231     0.0000     0.0000     0.0000     0.0000     0.0000     0.0000     0.0000     0.0000     0.0000 </r>
        <r>   -33.8242     0.0000     0.0000     0.0000     0.0000     0.0000     0.0000     0.0000     0.0000     0.0000 </r>
        <r>   -33.6252     0.0000     0.0000     0.0000     0.0000     0.0000     0.0000     0.0000     0.0000     0.0000 </r>
        <r>   -33.4263     0.0000     0.0000     0.0000     0.0000     0.0000     0.0000     0.0000     0.0000     0.0000 </r>
        <r>   -33.2274     0.0000     0.0000     0.0000     0.0000     0.0000     0.0000     0.0000     0.0000     0.0000 </r>
        <r>   -33.0285     0.0000     0.0000     0.0000     0.0000     0.0000     0.0000     0.0000     0.0000     0.0000 </r>
        <r>   -32.8296     0.0000     0.0000     0.0000     0.0000     0.0000     0.0000     0.0000     0.0000     0.0000 </r>
        <r>   -32.6307     0.0000     0.0000     0.0000     0.0000     0.0000     0.0000     0.0000     0.0000     0.0000 </r>
        <r>   -32.4318     0.0000     0.0000     0.0000     0.0000     0.0000     0.0000     0.0000     0.0000     0.0000 </r>
        <r>   -32.2328     0.0000     0.0000     0.0000     0.0000     0.0000     0.0000     0.0000     0.0000     0.0000 </r>
        <r>   -32.0339     0.0000     0.0000     0.0000     0.0000     0.0000     0.0000     0.0000     0.0000     0.0000 </r>
        <r>   -31.8350     0.0000     0.0000     0.0000     0.0000     0.0000     0.0000     0.0000     0.0000     0.0000 </r>
        <r>   -31.6361     0.0000     0.0000     0.0000     0.0000     0.0000     0.0000     0.0000     0.0000     0.0000 </r>
        <r>   -31.4372     0.0000     0.0000     0.0000     0.0000     0.0000     0.0000     0.0000     0.0000     0.0000 </r>
        <r>   -31.2383     0.0000     0.0000     0.0000     0.0000     0.0000     0.0000     0.0000     0.0000     0.0000 </r>
        <r>   -31.0394     0.0000     0.0000     0.0000     0.0000     0.0000     0.0000     0.0000     0.0000     0.0000 </r>
        <r>   -30.8405     0.0000     0.0000     0.0000     0.0000     0.0000     0.0000     0.0000     0.0000     0.0000 </r>
        <r>   -30.6415     0.0000     0.0000     0.0000     0.0000     0.0000     0.0000     0.0000     0.0000     0.0000 </r>
        <r>   -30.4426     0.0000     0.0000     0.0000     0.0000     0.0000     0.0000     0.0000     0.0000     0.0000 </r>
        <r>   -30.2437     0.0000     0.0000     0.0000     0.0000     0.0000     0.0000     0.0000     0.0000     0.0000 </r>
        <r>   -30.0448     0.0000     0.0000     0.0000     0.0000     0.0000     0.0000     0.0000     0.0000     0.0000 </r>
        <r>   -29.8459     0.0000     0.0000     0.0000     0.0000     0.0000     0.0000     0.0000     0.0000     0.0000 </r>
        <r>   -29.6470     0.0000     0.0000     0.0000     0.0000     0.0000     0.0000     0.0000     0.0000     0.0000 </r>
        <r>   -29.4481     0.0000     0.0000     0.0000     0.0000     0.0000     0.0000     0.0000     0.0000     0.0000 </r>
        <r>   -29.2491     0.0000     0.0000     0.0000     0.0000     0.0000     0.0000     0.0000     0.0000     0.0000 </r>
        <r>   -29.0502     0.0000     0.0000     0.0000     0.0000     0.0000     0.0000     0.0000     0.0000     0.0000 </r>
        <r>   -28.8513     0.0000     0.0000     0.0000     0.0000     0.0000     0.0000     0.0000     0.0000     0.0000 </r>
        <r>   -28.6524     0.0000     0.0000     0.0000     0.0000     0.0000     0.0000     0.0000     0.0000     0.0000 </r>
        <r>   -28.4535     0.0000     0.0000     0.0000     0.0000     0.0000     0.0000     0.0000     0.0000     0.0000 </r>
        <r>   -28.2546     0.0000     0.0000     0.0000     0.0000     0.0000     0.0000     0.0000     0.0000     0.0000 </r>
        <r>   -28.0557     0.0000     0.0000     0.0000     0.0000     0.0000     0.0000     0.0000     0.0000     0.0000 </r>
        <r>   -27.8568     0.0000     0.0000     0.0000     0.0000     0.0000     0.0000     0.0000     0.0000     0.0000 </r>
        <r>   -27.6578     0.0000     0.0000     0.0000     0.0000     0.0000     0.0000     0.0000     0.0000     0.0000 </r>
        <r>   -27.4589     0.0000     0.0000     0.0000     0.0000     0.0000     0.0000     0.0000     0.0000     0.0000 </r>
        <r>   -27.2600     0.0000     0.0000     0.0000     0.0000     0.0000     0.0000     0.0000     0.0000     0.0000 </r>
        <r>   -27.0611     0.0000     0.0000     0.0000     0.0000     0.0000     0.0000     0.0000     0.0000     0.0000 </r>
        <r>   -26.8622     0.0000     0.0000     0.0000     0.0000     0.0000     0.0000     0.0000     0.0000     0.0000 </r>
        <r>   -26.6633     0.0000     0.0000     0.0000     0.0000     0.0000     0.0000     0.0000     0.0000     0.0000 </r>
        <r>   -26.4644     0.0000     0.0000     0.0000     0.0000     0.0000     0.0000     0.0000     0.0000     0.0000 </r>
        <r>   -26.2654     0.0000     0.0000     0.0000     0.0000     0.0000     0.0000     0.0000     0.0000     0.0000 </r>
        <r>   -26.0665     0.0000     0.0000     0.0000     0.0000     0.0000     0.0000     0.0000     0.0000     0.0000 </r>
        <r>   -25.8676     0.0000     0.0000     0.0000     0.0000     0.0000     0.0000     0.0000     0.0000     0.0000 </r>
        <r>   -25.6687     0.0000     0.0000     0.0000     0.0000     0.0000     0.0000     0.0000     0.0000     0.0000 </r>
        <r>   -25.4698     0.0000     0.0000     0.0000     0.0000     0.0000     0.0000     0.0000     0.0000     0.0000 </r>
        <r>   -25.2709     0.0000     0.0000     0.0000     0.0000     0.0000     0.0000     0.0000     0.0000     0.0000 </r>
        <r>   -25.0720     0.0000     0.0000     0.0000     0.0000     0.0000     0.0000     0.0000     0.0000     0.0000 </r>
        <r>   -24.8731     0.0000     0.0000     0.0000     0.0000     0.0000     0.0000     0.0000     0.0000     0.0000 </r>
        <r>   -24.6741     0.0000     0.0000     0.0000     0.0000     0.0000     0.0000     0.0000     0.0000     0.0000 </r>
        <r>   -24.4752     0.0000     0.0000     0.0000     0.0000     0.0000     0.0000     0.0000     0.0000     0.0000 </r>
        <r>   -24.2763     0.0000     0.0000     0.0000     0.0000     0.0000     0.0000     0.0000     0.0000     0.0000 </r>
        <r>   -24.0774     0.0000     0.0000     0.0000     0.0000     0.0000     0.0000     0.0000     0.0000     0.0000 </r>
        <r>   -23.8785     0.0000     0.0000     0.0000     0.0000     0.0000     0.0000     0.0000     0.0000     0.0000 </r>
        <r>   -23.6796     0.0000     0.0000     0.0000     0.0000     0.0000     0.0000     0.0000     0.0000     0.0000 </r>
        <r>   -23.4807     0.0000     0.0000     0.0000     0.0000     0.0000     0.0000     0.0000     0.0000     0.0000 </r>
        <r>   -23.2817     0.0000     0.0000     0.0000     0.0000     0.0000     0.0000     0.0000     0.0000     0.0000 </r>
        <r>   -23.0828     0.0000     0.0000     0.0000     0.0000     0.0000     0.0000     0.0000     0.0000     0.0000 </r>
        <r>   -22.8839     0.0000     0.0000     0.0000     0.0000     0.0000     0.0000     0.0000     0.0000     0.0000 </r>
        <r>   -22.6850     0.0000     0.0000     0.0000     0.0000     0.0000     0.0000     0.0000     0.0000     0.0000 </r>
        <r>   -22.4861     0.0000     0.0000     0.0000     0.0000     0.0000     0.0000     0.0000     0.0000     0.0000 </r>
        <r>   -22.2872     0.0000     0.0000     0.0000     0.0000     0.0000     0.0000     0.0000     0.0000     0.0000 </r>
        <r>   -22.0883     0.0000     0.0000     0.0000     0.0000     0.0000     0.0000     0.0000     0.0000     0.0000 </r>
        <r>   -21.8894     0.0013     0.0000     0.0000     0.0000     0.0000     0.0000     0.0000     0.0000     0.0000 </r>
        <r>   -21.6904     1.1564     0.0002     0.0002     0.0002     0.0000     0.0000     0.0000     0.0000     0.0000 </r>
        <r>   -21.4915     1.5740     0.0008     0.0008     0.0008     0.0003     0.0003     0.0000     0.0003     0.0000 </r>
        <r>   -21.2926     6.7571     0.0002     0.0002     0.0002     0.0002     0.0002     0.0000     0.0002     0.0000 </r>
        <r>   -21.0937     0.3076     0.0000     0.0000     0.0000     0.0000     0.0000     0.0000     0.0000     0.0000 </r>
        <r>   -20.8948     0.0000     0.0000     0.0000     0.0000     0.0000     0.0000     0.0000     0.0000     0.0000 </r>
        <r>   -20.6959     0.0000     0.0000     0.0000     0.0000     0.0000     0.0000     0.0000     0.0000     0.0000 </r>
        <r>   -20.4970     0.0000     0.0000     0.0000     0.0000     0.0000     0.0000     0.0000     0.0000     0.0000 </r>
        <r>   -20.2980     0.0000     0.0000     0.0000     0.0000     0.0000     0.0000     0.0000     0.0000     0.0000 </r>
        <r>   -20.0991     0.0000     0.0000     0.0000     0.0000     0.0000     0.0000     0.0000     0.0000     0.0000 </r>
        <r>   -19.9002     0.0000     0.0000     0.0000     0.0000     0.0000     0.0000     0.0000     0.0000     0.0000 </r>
        <r>   -19.7013     0.0000     0.0000     0.0000     0.0000     0.0000     0.0000     0.0000     0.0000     0.0000 </r>
        <r>   -19.5024     0.0000     0.0000     0.0000     0.0000     0.0000     0.0000     0.0000     0.0000     0.0000 </r>
        <r>   -19.3035     0.0000     0.0000     0.0000     0.0000     0.0000     0.0000     0.0000     0.0000     0.0000 </r>
        <r>   -19.1046     0.0000     0.0000     0.0000     0.0000     0.0000     0.0000     0.0000     0.0000     0.0000 </r>
        <r>   -18.9056     0.0000     0.0000     0.0000     0.0000     0.0000     0.0000     0.0000     0.0000     0.0000 </r>
        <r>   -18.7067     0.0000     0.0000     0.0000     0.0000     0.0000     0.0000     0.0000     0.0000     0.0000 </r>
        <r>   -18.5078     0.0000     0.0000     0.0000     0.0000     0.0000     0.0000     0.0000     0.0000     0.0000 </r>
        <r>   -18.3089     0.0000     0.0000     0.0000     0.0000     0.0000     0.0000     0.0000     0.0000     0.0000 </r>
        <r>   -18.1100     0.0000     0.0000     0.0000     0.0000     0.0000     0.0000     0.0000     0.0000     0.0000 </r>
        <r>   -17.9111     0.0000     0.0000     0.0000     0.0000     0.0000     0.0000     0.0000     0.0000     0.0000 </r>
        <r>   -17.7122     0.0000     0.0000     0.0000     0.0000     0.0000     0.0000     0.0000     0.0000     0.0000 </r>
        <r>   -17.5133     0.0000     0.0000     0.0000     0.0000     0.0000     0.0000     0.0000     0.0000     0.0000 </r>
        <r>   -17.3143     0.0000     0.0000     0.0000     0.0000     0.0000     0.0000     0.0000     0.0000     0.0000 </r>
        <r>   -17.1154     0.0000     0.0000     0.0000     0.0000     0.0000     0.0000     0.0000     0.0000     0.0000 </r>
        <r>   -16.9165     0.0000     0.0000     0.0000     0.0000     0.0000     0.0000     0.0000     0.0000     0.0000 </r>
        <r>   -16.7176     0.0000     0.0000     0.0000     0.0000     0.0000     0.0000     0.0000     0.0000     0.0000 </r>
        <r>   -16.5187     0.0000     0.0000     0.0000     0.0000     0.0000     0.0000     0.0000     0.0000     0.0000 </r>
        <r>   -16.3198     0.0000     0.0000     0.0000     0.0000     0.0000     0.0000     0.0000     0.0000     0.0000 </r>
        <r>   -16.1209     0.0000     0.0000     0.0000     0.0000     0.0000     0.0000     0.0000     0.0000     0.0000 </r>
        <r>   -15.9219     0.0000     0.0000     0.0000     0.0000     0.0000     0.0000     0.0000     0.0000     0.0000 </r>
        <r>   -15.7230     0.0000     0.0000     0.0000     0.0000     0.0000     0.0000     0.0000     0.0000     0.0000 </r>
        <r>   -15.5241     0.0000     0.0000     0.0000     0.0000     0.0000     0.0000     0.0000     0.0000     0.0000 </r>
        <r>   -15.3252     0.0000     0.0000     0.0000     0.0000     0.0000     0.0000     0.0000     0.0000     0.0000 </r>
        <r>   -15.1263     0.0000     0.0000     0.0000     0.0000     0.0000     0.0000     0.0000     0.0000     0.0000 </r>
        <r>   -14.9274     0.0000     0.0000     0.0000     0.0000     0.0000     0.0000     0.0000     0.0000     0.0000 </r>
        <r>   -14.7285     0.0000     0.0000     0.0000     0.0000     0.0000     0.0000     0.0000     0.0000     0.0000 </r>
        <r>   -14.5296     0.0000     0.0000     0.0000     0.0000     0.0000     0.0000     0.0000     0.0000     0.0000 </r>
        <r>   -14.3306     0.0000     0.0000     0.0000     0.0000     0.0000     0.0000     0.0000     0.0000     0.0000 </r>
        <r>   -14.1317     0.0000     0.0000     0.0000     0.0000     0.0000     0.0000     0.0000     0.0000     0.0000 </r>
        <r>   -13.9328     0.0000     0.0000     0.0000     0.0000     0.0000     0.0000     0.0000     0.0000     0.0000 </r>
        <r>   -13.7339     0.0000     0.0000     0.0000     0.0000     0.0000     0.0000     0.0000     0.0000     0.0000 </r>
        <r>   -13.5350     0.0000     0.0000     0.0000     0.0000     0.0000     0.0000     0.0000     0.0000     0.0000 </r>
        <r>   -13.3361     0.0000     0.0000     0.0000     0.0000     0.0000     0.0000     0.0000     0.0000     0.0000 </r>
        <r>   -13.1372     0.0000     0.0000     0.0000     0.0000     0.0000     0.0000     0.0000     0.0000     0.0000 </r>
        <r>   -12.9382     0.0000     0.0000     0.0000     0.0000     0.0000     0.0000     0.0000     0.0000     0.0000 </r>
        <r>   -12.7393     0.0000     0.0039     0.0039     0.0039     0.0000     0.0000     0.0000     0.0000     0.0000 </r>
        <r>   -12.5404     0.0116     0.0157     0.0157     0.0157     0.0007     0.0007     0.0001     0.0007     0.0001 </r>
        <r>   -12.3415     0.0042     0.0118     0.0118     0.0118     0.0015     0.0015     0.0002     0.0015     0.0002 </r>
        <r>   -12.1426     0.0029     0.0071     0.0071     0.0071     0.0005     0.0005     0.0007     0.0005     0.0007 </r>
        <r>   -11.9437     0.0058     0.0226     0.0226     0.0226     0.0017     0.0017     0.0006     0.0017     0.0006 </r>
        <r>   -11.7448     0.0050     0.0126     0.0126     0.0126     0.0026     0.0026     0.0023     0.0026     0.0023 </r>
        <r>   -11.5459     0.0000     0.0004     0.0004     0.0004     0.0000     0.0000     0.0000     0.0000     0.0000 </r>
        <r>   -11.3469     0.0075     0.0320     0.0320     0.0320     0.0021     0.0021     0.0011     0.0021     0.0011 </r>
        <r>   -11.1480     0.0009     0.0003     0.0003     0.0003     0.0001     0.0001     0.0001     0.0001     0.0001 </r>
        <r>   -10.9491     0.0000     0.0000     0.0000     0.0000     0.0000     0.0000     0.0000     0.0000     0.0000 </r>
        <r>   -10.7502     0.0000     0.0000     0.0000     0.0000     0.0000     0.0000     0.0000     0.0000     0.0000 </r>
        <r>   -10.5513     0.0000     0.0000     0.0000     0.0000     0.0000     0.0000     0.0000     0.0000     0.0000 </r>
        <r>   -10.3524     0.0000     0.0000     0.0000     0.0000     0.0000     0.0000     0.0000     0.0000     0.0000 </r>
        <r>   -10.1535     0.0000     0.0000     0.0000     0.0000     0.0000     0.0000     0.0000     0.0000     0.0000 </r>
        <r>    -9.9545     0.0000     0.0000     0.0000     0.0000     0.0000     0.0000     0.0000     0.0000     0.0000 </r>
        <r>    -9.7556     0.0000     0.0000     0.0000     0.0000     0.0000     0.0000     0.0000     0.0000     0.0000 </r>
        <r>    -9.5567     0.0000     0.0000     0.0000     0.0000     0.0000     0.0000     0.0000     0.0000     0.0000 </r>
        <r>    -9.3578     0.0000     0.0000     0.0000     0.0000     0.0000     0.0000     0.0000     0.0000     0.0000 </r>
        <r>    -9.1589     0.0000     0.0000     0.0000     0.0000     0.0000     0.0000     0.0000     0.0000     0.0000 </r>
        <r>    -8.9600     0.0000     0.0000     0.0000     0.0000     0.0000     0.0000     0.0000     0.0000     0.0000 </r>
        <r>    -8.7611     0.0000     0.0000     0.0000     0.0000     0.0000     0.0000     0.0000     0.0000     0.0000 </r>
        <r>    -8.5622     0.0000     0.0000     0.0000     0.0000     0.0000     0.0000     0.0000     0.0000     0.0000 </r>
        <r>    -8.3632     0.0000     0.0000     0.0000     0.0000     0.0000     0.0000     0.0000     0.0000     0.0000 </r>
        <r>    -8.1643     0.0000     0.0000     0.0000     0.0000     0.0000     0.0000     0.0000     0.0000     0.0000 </r>
        <r>    -7.9654     0.0000     0.0000     0.0000     0.0000     0.0000     0.0000     0.0000     0.0000     0.0000 </r>
        <r>    -7.7665     0.0000     0.0000     0.0000     0.0000     0.0000     0.0000     0.0000     0.0000     0.0000 </r>
        <r>    -7.5676     0.0000     0.0000     0.0000     0.0000     0.0000     0.0000     0.0000     0.0000     0.0000 </r>
        <r>    -7.3687     0.0000     0.0000     0.0000     0.0000     0.0000     0.0000     0.0000     0.0000     0.0000 </r>
        <r>    -7.1698     0.0000     0.0430     0.0430     0.0430     0.0000     0.0000     0.0000     0.0000     0.0000 </r>
        <r>    -6.9708     0.0000     0.2477     0.2477     0.2477     0.0000     0.0000     0.0000     0.0000     0.0000 </r>
        <r>    -6.7719     0.0003     2.1931     2.1931     2.1931     0.0003     0.0003     0.0009     0.0003     0.0009 </r>
        <r>    -6.5730     0.0004     4.1727     4.1727     4.1727     0.0003     0.0003     0.0005     0.0003     0.0005 </r>
        <r>    -6.3741     0.0002     2.2189     2.2189     2.2189     0.0001     0.0001     0.0002     0.0001     0.0002 </r>
        <r>    -6.1752     0.0000     0.0033     0.0033     0.0033     0.0000     0.0000     0.0000     0.0000     0.0000 </r>
        <r>    -5.9763     0.0000     0.0000     0.0000     0.0000     0.0000     0.0000     0.0000     0.0000     0.0000 </r>
        <r>    -5.7774     0.0000     0.0000     0.0000     0.0000     0.0000     0.0000     0.0000     0.0000     0.0000 </r>
        <r>    -5.5785     0.0000     0.0000     0.0000     0.0000     0.0000     0.0000     0.0000     0.0000     0.0000 </r>
        <r>    -5.3795     0.0000     0.0000     0.0000     0.0000     0.0000     0.0000     0.0000     0.0000     0.0000 </r>
        <r>    -5.1806     0.0000     0.0000     0.0000     0.0000     0.0000     0.0000     0.0000     0.0000     0.0000 </r>
        <r>    -4.9817     0.0000     0.0000     0.0000     0.0000     0.0000     0.0000     0.0000     0.0000     0.0000 </r>
        <r>    -4.7828     0.0000     0.0000     0.0000     0.0000     0.0000     0.0000     0.0000     0.0000     0.0000 </r>
        <r>    -4.5839     0.0000     0.0000     0.0000     0.0000     0.0000     0.0000     0.0000     0.0000     0.0000 </r>
        <r>    -4.3850     0.0000     0.0000     0.0000     0.0000     0.0000     0.0000     0.0000     0.0000     0.0000 </r>
        <r>    -4.1861     0.0000     0.0000     0.0000     0.0000     0.0000     0.0000     0.0000     0.0000     0.0000 </r>
        <r>    -3.9871     0.0000     0.0000     0.0000     0.0000     0.0000     0.0000     0.0000     0.0000     0.0000 </r>
        <r>    -3.7882     0.0000     0.0000     0.0000     0.0000     0.0000     0.0000     0.0000     0.0000     0.0000 </r>
        <r>    -3.5893     0.0000     0.0000     0.0000     0.0000     0.0000     0.0000     0.0000     0.0000     0.0000 </r>
        <r>    -3.3904     0.0000     0.0000     0.0000     0.0000     0.0000     0.0000     0.0000     0.0000     0.0000 </r>
        <r>    -3.1915     0.0000     0.0000     0.0000     0.0000     0.0000     0.0000     0.0000     0.0000     0.0000 </r>
        <r>    -2.9926     0.0000     0.0000     0.0000     0.0000     0.0000     0.0000     0.0000     0.0000     0.0000 </r>
        <r>    -2.7937     0.0000     0.0000     0.0000     0.0000     0.0000     0.0000     0.0000     0.0000     0.0000 </r>
        <r>    -2.5947     0.0000     0.0000     0.0000     0.0000     0.0000     0.0000     0.0000     0.0000     0.0000 </r>
        <r>    -2.3958     0.0000     0.0000     0.0000     0.0000     0.0000     0.0000     0.0000     0.0000     0.0000 </r>
        <r>    -2.1969     0.0000     0.0000     0.0000     0.0000     0.0000     0.0000     0.0000     0.0000     0.0000 </r>
        <r>    -1.9980     0.0000     0.0000     0.0000     0.0000     0.0000     0.0000     0.0000     0.0000     0.0000 </r>
        <r>    -1.7991     0.0000     0.0000     0.0000     0.0000     0.0000     0.0000     0.0000     0.0000     0.0000 </r>
        <r>    -1.6002     0.0000     0.0000     0.0000     0.0000     0.0000     0.0000     0.0000     0.0000     0.0000 </r>
        <r>    -1.4013     0.0000     0.0000     0.0000     0.0000     0.0000     0.0000     0.0000     0.0000     0.0000 </r>
        <r>    -1.2024     0.0000     0.0000     0.0000     0.0000     0.0000     0.0000     0.0000     0.0000     0.0000 </r>
        <r>    -1.0034     0.0000     0.0000     0.0000     0.0000     0.0000     0.0000     0.0000     0.0000     0.0000 </r>
        <r>    -0.8045     0.0000     0.0000     0.0000     0.0000     0.0000     0.0000     0.0000     0.0000     0.0000 </r>
        <r>    -0.6056     0.0000     0.0000     0.0000     0.0000     0.0000     0.0000     0.0000     0.0000     0.0000 </r>
        <r>    -0.4067     0.0000     0.0000     0.0000     0.0000     0.0000     0.0000     0.0000     0.0000     0.0000 </r>
        <r>    -0.2078     0.0000     0.0000     0.0000     0.0000     0.0000     0.0000     0.0000     0.0000     0.0000 </r>
        <r>    -0.0089     0.0023     0.0000     0.0000     0.0000     0.0000     0.0000     0.0011     0.0000     0.0011 </r>
        <r>     0.1900     0.0093     0.0023     0.0023     0.0023     0.0061     0.0061     0.0044     0.0061     0.0044 </r>
        <r>     0.3890     0.0000     0.0000     0.0000     0.0000     0.0004     0.0004     0.0000     0.0004     0.0000 </r>
        <r>     0.5879     0.0113     0.0021     0.0021     0.0021     0.0000     0.0000     0.0047     0.0000     0.0047 </r>
        <r>     0.7868     0.0871     0.0346     0.0346     0.0346     0.0140     0.0140     0.0213     0.0140     0.0213 </r>
        <r>     0.9857     0.0102     0.0004     0.0004     0.0004     0.0045     0.0045     0.0002     0.0045     0.0002 </r>
        <r>     1.1846     0.0276     0.0102     0.0102     0.0102     0.0025     0.0025     0.0064     0.0025     0.0064 </r>
        <r>     1.3835     0.0024     0.1391     0.1391     0.1391     0.0496     0.0496     0.0181     0.0496     0.0181 </r>
        <r>     1.5824     0.0028     0.0423     0.0423     0.0423     0.0269     0.0269     0.0240     0.0269     0.0240 </r>
        <r>     1.7813     0.0052     0.0226     0.0226     0.0226     0.0505     0.0505     0.0011     0.0505     0.0011 </r>
        <r>     1.9803     0.0072     0.0285     0.0285     0.0285     0.0496     0.0496     0.0000     0.0496     0.0000 </r>
        <r>     2.1792     0.0094     0.0288     0.0288     0.0288     0.0192     0.0192     0.0154     0.0192     0.0154 </r>
        <r>     2.3781     0.0067     0.0156     0.0156     0.0156     0.0107     0.0107     0.0077     0.0107     0.0077 </r>
        <r>     2.5770     0.0353     0.0265     0.0265     0.0265     0.0056     0.0056     0.0422     0.0056     0.0422 </r>
        <r>     2.7759     0.0003     0.0206     0.0206     0.0206     0.0120     0.0120     0.0021     0.0120     0.0021 </r>
        <r>     2.9748     0.0000     0.0283     0.0283     0.0283     0.0153     0.0153     0.0058     0.0153     0.0058 </r>
        <r>     3.1737     0.0005     0.0151     0.0151     0.0151     0.0212     0.0212     0.0035     0.0212     0.0035 </r>
        <r>     3.3727     0.0071     0.0342     0.0342     0.0342     0.0196     0.0196     0.0253     0.0196     0.0253 </r>
        <r>     3.5716     0.0002     0.0040     0.0040     0.0040     0.0012     0.0012     0.0031     0.0012     0.0031 </r>
        <r>     3.7705     0.0000     0.0005     0.0005     0.0005     0.0000     0.0000     0.0068     0.0000     0.0068 </r>
        <r>     3.9694     0.0000     0.0000     0.0000     0.0000     0.0000     0.0000     0.0008     0.0000     0.0008 </r>
        <r>     4.1683     0.0000     0.0000     0.0000     0.0000     0.0000     0.0000     0.0000     0.0000     0.0000 </r>
[...]
        <r>  0.0000  0.0082  0.0000  0.0010  0.0000  0.0000  0.0000  0.0000  0.0000 </r>
        <r>  0.0199  0.0000  0.0049  0.0000  0.0000  0.0000  0.0000  0.0000  0.0000 </r>
        <r>  0.0025  0.0000  0.0006  0.0000  0.0000  0.0000  0.0000  0.0000  0.0000 </r>
       </set>
       <set comment="band 11">
        <r>  0.0004  0.0000  0.8761  0.0000  0.0000  0.0000  0.0004  0.0000  0.0000 </r>
        <r>  0.0000  0.0000  0.0000  0.0000  0.0034  0.0000  0.0000  0.0000  0.0000 </r>
        <r>  0.0000  0.0000  0.0000  0.0000  0.0000  0.0000  0.0000  0.0000  0.0000 </r>
        <r>  0.0000  0.0000  0.0000  0.0061  0.0000  0.0000  0.0000  0.0000  0.0000 </r>
        <r>  0.0000  0.0061  0.0000  0.0000  0.0000  0.0000  0.0000  0.0000  0.0000 </r>
       </set>
       <set comment="band 12">
        <r>  0.0000  0.0000  0.0000  0.0000  0.0000  0.0000  0.0000  0.0000  0.0000 </r>
        <r>  0.0000  0.0000  0.0000  0.0000  0.0000  0.0000  0.0000  0.0000  0.3199 </r>
        <r>  0.0000  0.0000  0.0000  0.0000  0.0000  0.0000  0.0000  0.0000  0.0000 </r>
        <r>  0.0000  0.2671  0.0000  0.0000  0.0000  0.0000  0.0000  0.0000  0.0000 </r>
        <r>  0.0000  0.0000  0.0000  0.2671  0.0000  0.0000  0.0000  0.0000  0.0000 </r>
       </set>
       <set comment="band 13">
        <r>  0.0000  0.0000  0.0000  0.0000  0.0046  0.0000  0.0000  0.0000  0.0000 </r>
        <r>  0.0981  0.0000  0.0002  0.0000  0.0000  0.0000  0.1341  0.0000  0.0000 </r>
        <r>  0.0004  0.0000  0.0047  0.0000  0.0000  0.0000  0.0000  0.0000  0.0000 </r>
        <r>  0.0000  0.2635  0.0000  0.0000  0.0000  0.0000  0.0000  0.0000  0.0000 </r>
        <r>  0.0000  0.0000  0.0000  0.2635  0.0000  0.0000  0.0000  0.0000  0.0000 </r>
       </set>
       <set comment="band 14">
        <r>  0.0131  0.0000  0.0660  0.0000  0.0000  0.0000  0.0113  0.0000  0.0000 </r>
        <r>  0.0000  0.0000  0.0000  0.0000  0.1208  0.0000  0.0000  0.0000  0.0000 </r>
        <r>  0.0000  0.0000  0.0000  0.0000  0.0000  0.0000  0.0000  0.0000  0.0000 </r>
        <r>  0.0000  0.0000  0.0000  0.2148  0.0000  0.0000  0.0000  0.0000  0.0000 </r>
        <r>  0.0000  0.2148  0.0000  0.0000  0.0000  0.0000  0.0000  0.0000  0.0000 </r>
       </set>
       <set comment="band 15">
        <r>  0.0000  0.0548  0.0000  0.0184  0.0000  0.0139  0.0000  0.0047  0.0000 </r>
        <r>  0.0000  0.0001  0.0000  0.0002  0.0000  0.0303  0.0000  0.0902  0.0000 </r>
        <r>  0.0000  0.0359  0.0000  0.1067  0.0000  0.0000  0.0000  0.0000  0.0000 </r>
        <r>  0.0001  0.0000  0.0802  0.0000  0.0000  0.0000  0.0000  0.0000  0.0000 </r>
        <r>  0.0002  0.0000  0.2385  0.0000  0.0000  0.0000  0.0000  0.0000  0.0000 </r>
       </set>
       <set comment="band 16">
        <r>  0.0000  0.0184  0.0000  0.0548  0.0000  0.0047  0.0000  0.0139  0.0000 </r>
        <r>  0.0000  0.0002  0.0000  0.0001  0.0000  0.0902  0.0000  0.0303  0.0000 </r>
        <r>  0.0000  0.1067  0.0000  0.0359  0.0000  0.0000  0.0000  0.0000  0.0000 </r>
        <r>  0.0002  0.0000  0.2385  0.0000  0.0000  0.0000  0.0000  0.0000  0.0000 </r>
        <r>  0.0001  0.0000  0.0802  0.0000  0.0000  0.0000  0.0000  0.0000  0.0000 </r>
       </set>
       <set comment="band 17">
        <r>  0.0000  0.0000  0.0000  0.0000  0.0000  0.0000  0.0000  0.0000  0.0000 </r>
        <r>  0.0458  0.0000  0.0345  0.0000  0.0000  0.0000  0.1081  0.0000  0.0000 </r>
        <r>  0.0075  0.0000  0.5804  0.0000  0.0000  0.0000  0.0000  0.0000  0.0000 </r>
        <r>  0.0000  0.0027  0.0000  0.0000  0.0000  0.0000  0.0000  0.0000  0.0000 </r>
        <r>  0.0000  0.0000  0.0000  0.0027  0.0000  0.0000  0.0000  0.0000  0.0000 </r>
       </set>
       <set comment="band 18">
        <r>  0.0000  0.0023  0.0000  0.0086  0.0000  0.0030  0.0000  0.0110  0.0000 </r>
        <r>  0.0000  0.0018  0.0000  0.0005  0.0000  0.0002  0.0000  0.0000  0.0000 </r>
        <r>  0.0000  0.3698  0.0000  0.1001  0.0000  0.0000  0.0000  0.0000  0.0000 </r>
        <r>  0.0016  0.0000  0.1639  0.0000  0.0000  0.0000  0.0000  0.0000  0.0000 </r>
        <r>  0.0004  0.0000  0.0444  0.0000  0.0000  0.0000  0.0000  0.0000  0.0000 </r>
       </set>
       <set comment="band 19">
        <r>  0.0000  0.0086  0.0000  0.0023  0.0000  0.0110  0.0000  0.0030  0.0000 </r>
        <r>  0.0000  0.0005  0.0000  0.0018  0.0000  0.0000  0.0000  0.0002  0.0000 </r>
        <r>  0.0000  0.1001  0.0000  0.3698  0.0000  0.0000  0.0000  0.0000  0.0000 </r>
        <r>  0.0004  0.0000  0.0444  0.0000  0.0000  0.0000  0.0000  0.0000  0.0000 </r>
        <r>  0.0016  0.0000  0.1639  0.0000  0.0000  0.0000  0.0000  0.0000  0.0000 </r>
       </set>
       <set comment="band 20">
        <r>  0.0000  0.0000  0.0000  0.0000  0.0000  0.0000  0.0000  0.0000  0.0082 </r>
        <r>  0.0000  0.0000  0.0000  0.0000  0.0000  0.0000  0.0000  0.0000  0.0000 </r>
        <r>  0.0000  0.0000  0.0000  0.0000  0.0000  0.0000  0.0000  0.0000  0.0000 </r>
        <r>  0.0000  0.0000  0.0000  0.3678  0.0000  0.0000  0.0000  0.0000  0.0000 </r>
        <r>  0.0000  0.3678  0.0000  0.0000  0.0000  0.0000  0.0000  0.0000  0.0000 </r>
       </set>
       <set comment="band 21">
        <r>  0.0000  0.0008  0.0000  0.0027  0.0000  0.0219  0.0000  0.0775  0.0000 </r>
        <r>  0.0000  0.0028  0.0000  0.0008  0.0000  0.3656  0.0000  0.1035  0.0000 </r>
        <r>  0.0000  0.0131  0.0000  0.0037  0.0000  0.0000  0.0000  0.0000  0.0000 </r>
        <r>  0.0074  0.0000  0.1456  0.0000  0.0000  0.0000  0.0000  0.0000  0.0000 </r>
        <r>  0.0021  0.0000  0.0412  0.0000  0.0000  0.0000  0.0000  0.0000  0.0000 </r>
       </set>
       <set comment="band 22">
        <r>  0.0000  0.0027  0.0000  0.0008  0.0000  0.0775  0.0000  0.0219  0.0000 </r>
        <r>  0.0000  0.0008  0.0000  0.0028  0.0000  0.1035  0.0000  0.3656  0.0000 </r>
        <r>  0.0000  0.0037  0.0000  0.0131  0.0000  0.0000  0.0000  0.0000  0.0000 </r>
        <r>  0.0021  0.0000  0.0412  0.0000  0.0000  0.0000  0.0000  0.0000  0.0000 </r>
        <r>  0.0074  0.0000  0.1456  0.0000  0.0000  0.0000  0.0000  0.0000  0.0000 </r>
       </set>
       <set comment="band 23">
        <r>  0.0000  0.0000  0.0000  0.0000  0.5068  0.0000  0.0000  0.0000  0.0000 </r>
        <r>  0.0015  0.0000  0.0099  0.0000  0.0000  0.0000  0.0102  0.0000  0.0000 </r>
        <r>  0.0635  0.0000  0.0012  0.0000  0.0000  0.0000  0.0000  0.0000  0.0000 </r>
        <r>  0.0000  0.0108  0.0000  0.0000  0.0000  0.0000  0.0000  0.0000  0.0000 </r>
        <r>  0.0000  0.0000  0.0000  0.0108  0.0000  0.0000  0.0000  0.0000  0.0000 </r>
       </set>
       <set comment="band 24">
        <r>  0.0002  0.0000  0.0003  0.0000  0.0000  0.0000  0.1015  0.0000  0.0000 </r>
        <r>  0.0000  0.0000  0.0000  0.0000  0.6440  0.0000  0.0000  0.0000  0.0000 </r>
        <r>  0.0000  0.0000  0.0000  0.0000  0.0000  0.0000  0.0000  0.0000  0.0000 </r>
        <r>  0.0000  0.0000  0.0000  0.0503  0.0000  0.0000  0.0000  0.0000  0.0000 </r>
        <r>  0.0000  0.0503  0.0000  0.0000  0.0000  0.0000  0.0000  0.0000  0.0000 </r>
       </set>
      </set>
      <set comment="kpoint 10">
       <set comment="band 1">
        <r>  0.0000  0.0000  0.0000  0.0000  0.0000  0.0000  0.0000  0.0000  0.0000 </r>
        <r>  0.9916  0.0000  0.0000  0.0000  0.0000  0.0000  0.0000  0.0000  0.0000 </r>
        <r>  0.0000  0.0000  0.0005  0.0000  0.0000  0.0000  0.0000  0.0000  0.0000 </r>
        <r>  0.0000  0.0005  0.0000  0.0000  0.0000  0.0000  0.0000  0.0000  0.0000 </r>
        <r>  0.0000  0.0000  0.0000  0.0005  0.0000  0.0000  0.0000  0.0000  0.0000 </r>
       </set>
       <set comment="band 2">
        <r>  0.0000  0.0000  0.0000  0.0000  0.0001  0.0001  0.0000  0.0001  0.0000 </r>
        <r>  0.0000  0.3226  0.4026  0.1892  0.0000  0.0000  0.0000  0.0000  0.0000 </r>
        <r>  0.0181  0.0000  0.0000  0.0000  0.0000  0.0000  0.0000  0.0000  0.0000 </r>
        <r>  0.0145  0.0000  0.0000  0.0000  0.0000  0.0000  0.0000  0.0000  0.0000 </r>
        <r>  0.0085  0.0000  0.0000  0.0000  0.0000  0.0000  0.0000  0.0000  0.0000 </r>
       </set>
       <set comment="band 3">
        <r>  0.0000  0.0000  0.0000  0.0000  0.0000  0.0002  0.0000  0.0001  0.0000 </r>
        <r>  0.0000  0.2321  0.0197  0.6626  0.0000  0.0000  0.0000  0.0000  0.0000 </r>
        <r>  0.0009  0.0000  0.0000  0.0000  0.0000  0.0000  0.0000  0.0000  0.0000 </r>
        <r>  0.0104  0.0000  0.0000  0.0000  0.0000  0.0000  0.0000  0.0000  0.0000 </r>
        <r>  0.0298  0.0000  0.0000  0.0000  0.0000  0.0000  0.0000  0.0000  0.0000 </r>
       </set>
       <set comment="band 4">
        <r>  0.0000  0.0000  0.0000  0.0000  0.0001  0.0000  0.0000  0.0001  0.0000 </r>
        <r>  0.0000  0.3597  0.4921  0.0626  0.0000  0.0000  0.0000  0.0000  0.0000 </r>
        <r>  0.0221  0.0000  0.0000  0.0000  0.0000  0.0000  0.0000  0.0000  0.0000 </r>
        <r>  0.0162  0.0000  0.0000  0.0000  0.0000  0.0000  0.0000  0.0000  0.0000 </r>
        <r>  0.0028  0.0000  0.0000  0.0000  0.0000  0.0000  0.0000  0.0000  0.0000 </r>
       </set>
       <set comment="band 5">
        <r>  0.9805  0.0000  0.0000  0.0000  0.0000  0.0000  0.0000  0.0000  0.0000 </r>
        <r>  0.0000  0.0000  0.0000  0.0000  0.0000  0.0000  0.0000  0.0000  0.0000 </r>
        <r>  0.0000  0.0000  0.0000  0.0000  0.0000  0.0000  0.0000  0.0000  0.0000 </r>
        <r>  0.0000  0.0000  0.0000  0.0000  0.0000  0.0000  0.0000  0.0000  0.0000 </r>
        <r>  0.0000  0.0000  0.0000  0.0000  0.0000  0.0000  0.0000  0.0000  0.0000 </r>
       </set>
       <set comment="band 6">
        <r>  0.0000  0.0000  0.0000  0.0000  0.0004  0.0024  0.0000  0.0009  0.0000 </r>
        <r>  0.0000  0.0186  0.0082  0.0514  0.0000  0.0000  0.0000  0.0000  0.0000 </r>
        <r>  0.0794  0.0000  0.0000  0.0000  0.0000  0.0000  0.0000  0.0000  0.0000 </r>
        <r>  0.1803  0.0000  0.0000  0.0000  0.0000  0.0000  0.0000  0.0000  0.0000 </r>
        <r>  0.4986  0.0000  0.0000  0.0000  0.0000  0.0000  0.0000  0.0000  0.0000 </r>
       </set>
       <set comment="band 7">
        <r>  0.0000  0.0000  0.0000  0.0000  0.0031  0.0004  0.0000  0.0002  0.0000 </r>
        <r>  0.0000  0.0036  0.0666  0.0079  0.0000  0.0000  0.0000  0.0000  0.0000 </r>
        <r>  0.6464  0.0000  0.0000  0.0000  0.0000  0.0000  0.0000  0.0000  0.0000 </r>
        <r>  0.0348  0.0000  0.0000  0.0000  0.0000  0.0000  0.0000  0.0000  0.0000 </r>
        <r>  0.0770  0.0000  0.0000  0.0000  0.0000  0.0000  0.0000  0.0000  0.0000 </r>
       </set>
       <set comment="band 8">
        <r>  0.0000  0.0000  0.0000  0.0000  0.0002  0.0009  0.0000  0.0026  0.0000 </r>
        <r>  0.0000  0.0560  0.0033  0.0188  0.0000  0.0000  0.0000  0.0000  0.0000 </r>
        <r>  0.0324  0.0000  0.0000  0.0000  0.0000  0.0000  0.0000  0.0000  0.0000 </r>
        <r>  0.5432  0.0000  0.0000  0.0000  0.0000  0.0000  0.0000  0.0000  0.0000 </r>
        <r>  0.1826  0.0000  0.0000  0.0000  0.0000  0.0000  0.0000  0.0000  0.0000 </r>
       </set>
       <set comment="band 9">
        <r>  0.0000  0.4390  0.1477  0.2477  0.0000  0.0000  0.0000  0.0000  0.0000 </r>
        <r>  0.0000  0.0000  0.0000  0.0000  0.0010  0.0017  0.0000  0.0030  0.0000 </r>
        <r>  0.0000  0.0030  0.0000  0.0054  0.0000  0.0000  0.0000  0.0000  0.0000 </r>
        <r>  0.0000  0.0000  0.0030  0.0018  0.0000  0.0000  0.0000  0.0000  0.0000 </r>
        <r>  0.0000  0.0018  0.0054  0.0000  0.0000  0.0000  0.0000  0.0000  0.0000 </r>
       </set>
       <set comment="band 10">
        <r>  0.0000  0.0920  0.4066  0.3358  0.0000  0.0000  0.0000  0.0000  0.0000 </r>
        <r>  0.0000  0.0000  0.0000  0.0000  0.0028  0.0023  0.0000  0.0006  0.0000 </r>
        <r>  0.0000  0.0041  0.0000  0.0011  0.0000  0.0000  0.0000  0.0000  0.0000 </r>
        <r>  0.0000  0.0000  0.0041  0.0050  0.0000  0.0000  0.0000  0.0000  0.0000 </r>
        <r>  0.0000  0.0050  0.0011  0.0000  0.0000  0.0000  0.0000  0.0000  0.0000 </r>
       </set>
       <set comment="band 11">
        <r>  0.0000  0.3034  0.2801  0.2509  0.0000  0.0000  0.0000  0.0000  0.0000 </r>
        <r>  0.0000  0.0000  0.0000  0.0000  0.0019  0.0017  0.0000  0.0021  0.0000 </r>
        <r>  0.0000  0.0031  0.0000  0.0037  0.0000  0.0000  0.0000  0.0000  0.0000 </r>
        <r>  0.0000  0.0000  0.0031  0.0034  0.0000  0.0000  0.0000  0.0000  0.0000 </r>
        <r>  0.0000  0.0034  0.0037  0.0000  0.0000  0.0000  0.0000  0.0000  0.0000 </r>
       </set>
       <set comment="band 12">
        <r>  0.0000  0.0000  0.0000  0.0000  0.0000  0.0000  0.0000  0.0000  0.0000 </r>
        <r>  0.0000  0.0000  0.0000  0.0000  0.0000  0.0000  0.2388  0.0000  0.0813 </r>
        <r>  0.0000  0.0000  0.2661  0.0000  0.0000  0.0000  0.0000  0.0000  0.0000 </r>
        <r>  0.0000  0.2686  0.0000  0.0000  0.0000  0.0000  0.0000  0.0000  0.0000 </r>
        <r>  0.0000  0.0000  0.0000  0.0004  0.0000  0.0000  0.0000  0.0000  0.0000 </r>
       </set>
       <set comment="band 13">
        <r>  0.0000  0.0000  0.0000  0.0000  0.0000  0.0000  0.0000  0.0000  0.0000 </r>
        <r>  0.0000  0.0000  0.0000  0.0000  0.0000  0.0000  0.0813  0.0000  0.2388 </r>
        <r>  0.0000  0.0000  0.0906  0.0000  0.0000  0.0000  0.0000  0.0000  0.0000 </r>
        <r>  0.0000  0.0882  0.0000  0.0000  0.0000  0.0000  0.0000  0.0000  0.0000 </r>
        <r>  0.0000  0.0000  0.0000  0.3563  0.0000  0.0000  0.0000  0.0000  0.0000 </r>
       </set>
       <set comment="band 14">
        <r>  0.0000  0.0000  0.0000  0.0000  0.0000  0.0000  0.0000  0.0000  0.0000 </r>
        <r>  0.1704  0.0000  0.0000  0.0000  0.0000  0.0000  0.0000  0.0000  0.0000 </r>
        <r>  0.0000  0.0000  0.1805  0.0000  0.0000  0.0000  0.0000  0.0000  0.0000 </r>
        <r>  0.0000  0.1805  0.0000  0.0000  0.0000  0.0000  0.0000  0.0000  0.0000 </r>
        <r>  0.0000  0.0000  0.0000  0.1805  0.0000  0.0000  0.0000  0.0000  0.0000 </r>
       </set>
       <set comment="band 15">
        <r>  0.0000  0.0022  0.1118  0.0007  0.0000  0.0000  0.0000  0.0000  0.0000 </r>
        <r>  0.0000  0.0000  0.0000  0.0000  0.1253  0.0008  0.0000  0.0025  0.0000 </r>
        <r>  0.0000  0.0015  0.0000  0.0043  0.0000  0.0000  0.0000  0.0000  0.0000 </r>
        <r>  0.0000  0.0000  0.0015  0.2205  0.0000  0.0000  0.0000  0.0000  0.0000 </r>
        <r>  0.0000  0.2205  0.0043  0.0000  0.0000  0.0000  0.0000  0.0000  0.0000 </r>
       </set>
       <set comment="band 16">
        <r>  0.0000  0.0632  0.0026  0.0490  0.0000  0.0000  0.0000  0.0000  0.0000 </r>
        <r>  0.0000  0.0000  0.0000  0.0000  0.0029  0.0549  0.0000  0.0708  0.0000 </r>
        <r>  0.0000  0.0967  0.0000  0.1246  0.0000  0.0000  0.0000  0.0000  0.0000 </r>
        <r>  0.0000  0.0000  0.0967  0.0051  0.0000  0.0000  0.0000  0.0000  0.0000 </r>
        <r>  0.0000  0.0051  0.1246  0.0000  0.0000  0.0000  0.0000  0.0000  0.0000 </r>
       </set>
       <set comment="band 17">
        <r>  0.0000  0.0494  0.0004  0.0650  0.0000  0.0000  0.0000  0.0000  0.0000 </r>
        <r>  0.0000  0.0000  0.0000  0.0000  0.0004  0.0728  0.0000  0.0553  0.0000 </r>
        <r>  0.0000  0.1282  0.0000  0.0974  0.0000  0.0000  0.0000  0.0000  0.0000 </r>
        <r>  0.0000  0.0000  0.1282  0.0008  0.0000  0.0000  0.0000  0.0000  0.0000 </r>
        <r>  0.0000  0.0008  0.0974  0.0000  0.0000  0.0000  0.0000  0.0000  0.0000 </r>
       </set>
       <set comment="band 18">
        <r>  0.0000  0.0000  0.0000  0.0000  0.0000  0.0000  0.0000  0.0000  0.0000 </r>
        <r>  0.0000  0.0000  0.0000  0.0000  0.0000  0.0000  0.0000  0.0000  0.0000 </r>
        <r>  0.0000  0.0609  0.0000  0.0136  0.0000  0.0000  0.0000  0.0000  0.0000 </r>
        <r>  0.0000  0.0000  0.0609  0.2972  0.0000  0.0000  0.0000  0.0000  0.0000 </r>
        <r>  0.0000  0.2972  0.0136  0.0000  0.0000  0.0000  0.0000  0.0000  0.0000 </r>
       </set>
       <set comment="band 19">
        <r>  0.0000  0.0000  0.0000  0.0000  0.0000  0.0000  0.0000  0.0000  0.0000 </r>
        <r>  0.0000  0.0000  0.0000  0.0000  0.0000  0.0000  0.0000  0.0000  0.0000 </r>
        <r>  0.0000  0.2040  0.0000  0.1166  0.0000  0.0000  0.0000  0.0000  0.0000 </r>
        <r>  0.0000  0.0000  0.2040  0.0512  0.0000  0.0000  0.0000  0.0000  0.0000 </r>
        <r>  0.0000  0.0512  0.1166  0.0000  0.0000  0.0000  0.0000  0.0000  0.0000 </r>
       </set>
       <set comment="band 20">
        <r>  0.0000  0.0000  0.0000  0.0000  0.0000  0.0000  0.0000  0.0000  0.0000 </r>
        <r>  0.0000  0.0000  0.0000  0.0000  0.0000  0.0000  0.0000  0.0000  0.0000 </r>
        <r>  0.0000  0.1069  0.0000  0.2416  0.0000  0.0000  0.0000  0.0000  0.0000 </r>
        <r>  0.0000  0.0000  0.1069  0.0233  0.0000  0.0000  0.0000  0.0000  0.0000 </r>
        <r>  0.0000  0.0233  0.2416  0.0000  0.0000  0.0000  0.0000  0.0000  0.0000 </r>
       </set>
       <set comment="band 21">
        <r>  0.0000  0.0000  0.0000  0.0000  0.0423  0.2805  0.0000  0.1824  0.0000 </r>
        <r>  0.0000  0.0047  0.0011  0.0072  0.0000  0.0000  0.0000  0.0000  0.0000 </r>
        <r>  0.0048  0.0000  0.0000  0.0000  0.0000  0.0000  0.0000  0.0000  0.0000 </r>
        <r>  0.0206  0.0000  0.0000  0.0000  0.0000  0.0000  0.0000  0.0000  0.0000 </r>
        <r>  0.0317  0.0000  0.0000  0.0000  0.0000  0.0000  0.0000  0.0000  0.0000 </r>
       </set>
       <set comment="band 22">
        <r>  0.0000  0.0000  0.0000  0.0000  0.0176  0.1785  0.0000  0.3091  0.0000 </r>
        <r>  0.0000  0.0079  0.0004  0.0046  0.0000  0.0000  0.0000  0.0000  0.0000 </r>
        <r>  0.0020  0.0000  0.0000  0.0000  0.0000  0.0000  0.0000  0.0000  0.0000 </r>
        <r>  0.0350  0.0000  0.0000  0.0000  0.0000  0.0000  0.0000  0.0000  0.0000 </r>
        <r>  0.0202  0.0000  0.0000  0.0000  0.0000  0.0000  0.0000  0.0000  0.0000 </r>
       </set>
       <set comment="band 23">
        <r>  0.0000  0.0000  0.0000  0.0000  0.4452  0.0462  0.0000  0.0137  0.0000 </r>
        <r>  0.0000  0.0003  0.0114  0.0012  0.0000  0.0000  0.0000  0.0000  0.0000 </r>
        <r>  0.0504  0.0000  0.0000  0.0000  0.0000  0.0000  0.0000  0.0000  0.0000 </r>
        <r>  0.0016  0.0000  0.0000  0.0000  0.0000  0.0000  0.0000  0.0000  0.0000 </r>
        <r>  0.0052  0.0000  0.0000  0.0000  0.0000  0.0000  0.0000  0.0000  0.0000 </r>
       </set>
       <set comment="band 24">
        <r>  0.0000  0.0000  0.0001  0.0000  0.0000  0.0000  0.0000  0.0000  0.0000 </r>
        <r>  0.0000  0.0000  0.0000  0.0000  0.7031  0.0053  0.0000  0.0005  0.0000 </r>
        <r>  0.0000  0.0007  0.0000  0.0001  0.0000  0.0000  0.0000  0.0000  0.0000 </r>
        <r>  0.0000  0.0000  0.0007  0.0951  0.0000  0.0000  0.0000  0.0000  0.0000 </r>
        <r>  0.0000  0.0951  0.0001  0.0000  0.0000  0.0000  0.0000  0.0000  0.0000 </r>
       </set>
      </set>
     </set>
    </set>
   </array>
  </projected>
 </calculation>
 <structure name="finalpos" >
  <crystal>
   <varray name="basis" >
    <v>       4.19200000       0.00000000       0.00000000 </v>
    <v>       0.00000000       4.19200000       0.00000000 </v>
    <v>       0.00000000       0.00000000       4.19200000 </v>
   </varray>
   <i name="volume">     73.66544589 </i>
   <varray name="rec_basis" >
    <v>       0.23854962       0.00000000       0.00000000 </v>
    <v>       0.00000000       0.23854962       0.00000000 </v>
    <v>       0.00000000       0.00000000       0.23854962 </v>
   </varray>
  </crystal>
  <varray name="positions" >
   <v>       0.00000000       0.00000000       0.00000000 </v>
   <v>       0.50000000       0.50000000       0.50000000 </v>
   <v>       0.50000000       0.50000000       0.00000000 </v>
   <v>       0.50000000       0.00000000       0.50000000 </v>
   <v>       0.00000000       0.50000000       0.50000000 </v>
  </varray>
 </structure>
</modeling>
